216
Atoms. Timestep: 0
1 0.835204 14.8856 14.8302
1 0.89308 11.7991 13.2937
1 5.40812 12.1061 6.10579
1 7.62536 6.60286 1.77818
1 15.414 15.7598 13.3961
1 8.10538 8.67019 12.7509
1 3.62721 4.24105 3.6581
1 3.50227 15.6707 3.79021
1 13.5531 13.617 10.4705
1 15.4588 2.5015 5.93261
1 14.0545 8.03446 9.46198
1 3.19978 3.01326 0.296789
1 1.46278 2.88769 8.30667
1 13.0974 16.2625 3.49757
1 10.9033 15.5171 11.7151
1 13.0845 8.89933 4.37284
1 1.75837 6.73703 8.82804
1 12.3545 6.82931 5.0412
1 5.98184 4.0236 10.894
1 15.1128 12.2688 14.4744
1 2.75637 6.35492 10.9111
1 10.3667 6.47299 3.90412
1 3.86209 4.61422 6.09631
1 6.09399 7.28976 9.2239
1 10.8848 5.34561 1.96965
1 12.2528 13.7597 12.4088
1 10.962 10.4265 11.164
1 10.3445 9.7896 2.12974
1 2.10408 6.43342 0.817355
1 3.01742 2.37057 9.87905
1 3.73399 9.74187 11.2587
1 4.63416 10.0816 2.66286
1 14.1461 10.0438 0.853275
1 7.59061 14.6175 10.694
1 9.64762 8.21228 10.8672
1 10.4083 11.8281 9.24023
1 7.21542 10.8537 12.4013
1 14.5034 7.49289 7.02584
1 7.03255 10.8952 10.0571
1 9.74707 10.3383 16.2216
1 4.4727 13.2648 13.341
1 9.22722 0.577056 16.0066
1 15.7149 8.29104 0.519563
1 13.3339 3.33411 14.5857
1 12.1755 2.74701 7.54107
1 8.96474 8.2255 3.1614
1 5.43798 3.48139 14.149
1 8.40136 15.3975 6.43661
1 14.1299 15.701 1.47983
1 13.566 10.554 14.9361
1 6.70292 2.75844 1.69209
1 2.99711 0.503178 5.90293
1 9.84531 2.76252 7.69079
1 16.0391 5.47631 4.82077
1 14.3104 6.3504 0.535361
1 11.2737 13.5987 0.410342
1 16.2699 1.17513 7.91057
1 2.35116 2.78281 6.16654
1 6.75701 5.02792 8.94189
1 12.7412 15.2874 15.8944
1 12.5558 13.936 6.45782
1 14.2287 4.57198 2.04425
1 15.2558 13.664 1.7617
1 6.53843 0.210886 5.52462
1 8.91709 4.76324 0.855328
1 11.8469 13.6501 8.75848
1 12.9693 0.778168 8.59774
1 9.75414 1.61998 3.69488
1 2.13874 10.3771 14.8387
1 4.13582 8.09407 3.78961
1 9.46255 6.35999 7.20893
1 5.04804 0.00247443 15.7598
1 15.8728 14.2049 8.43319
1 4.96489 7.48952 14.8795
1 11.3102 1.27584 12.7822
1 1.13878 8.25627 2.10599
1 0.901951 6.08898 12.4886
1 1.36858 1.02069 3.04724
1 11.6891 14.6092 4.30864
1 6.05518 15.5661 3.35008
1 1.443 15.0016 11.3352
1 11.3734 0.79471 15.0991
1 11.9397 12.9667 2.62567
1 7.86838 8.79406 9.38375
1 1.30753 9.36492 11.0875
1 7.57276 13.1596 6.98377
1 8.17588 12.2009 2.87085
1 8.89465 11.46 5.81238
1 2.10136 11.7174 0.46948
1 14.106 15.5137 7.169
1 13.2853 9.74674 11.0491
1 7.11145 8.44013 0.0444046
1 9.1184 14.6599 0.523256
1 2.16564 10.7278 6.40455
1 9.07356 4.35644 12.8004
1 2.4034 8.40999 5.37832
1 1.5728 11.689 4.216
1 7.6856 13.3312 15.4843
1 0.24394 8.52059 9.11904
1 5.97573 3.72558 3.71667
1 12.1397 5.38328 11.797
1 13.8127 14.2109 14.0789
1 10.5875 10.2229 7.47093
1 9.14919 1.99724 12.261
1 0.293013 4.53715 14.3461
1 8.21006 14.5691 2.72579
1 2.13767 13.7692 13.2318
1 13.7484 11.9902 6.12201
1 4.74108 11.0165 9.57746
1 14.3769 5.41895 14.7284
1 13.0385 4.82212 8.2309
1 9.0978 8.48491 14.9127
1 11.428 3.0418 15.8878
1 14.5244 1.25346 15.0089
1 12.0265 2.00499 3.59851
1 8.9119 5.30325 5.20789
1 4.1483 13.2534 9.81814
1 14.6669 0.308808 5.17209
1 2.37439 13.332 7.1033
1 15.3186 9.10146 5.27921
1 6.22487 7.16995 12.9043
1 4.43079 9.80504 14.9033
1 2.69032 0.749251 11.5409
1 13.1513 3.08357 5.38216
1 15.3236 11.404 4.41218
1 5.38669 13.9771 15.393
1 9.55821 15.6079 4.34685
1 5.36152 14.4138 11.4746
1 16.1624 2.34235 13.473
1 10.7974 11.9929 13.0187
1 12.4854 8.92657 2.05824
1 5.30536 13.2098 2.96183
1 0.557935 11.5561 10.981
1 0.121845 10.0454 7.31124
1 8.16032 0.580473 13.8822
1 0.704836 13.767 3.26186
1 15.3536 15.2827 10.8604
1 14.9643 2.78238 11.505
1 16.133 3.23358 1.86243
1 0.0154036 8.28441 12.8267
1 6.82119 4.88469 12.8693
1 11.9361 10.6059 5.50524
1 4.94576 0.367881 11.9279
1 11.1444 15.7869 9.3667
1 13.7708 5.11479 4.26944
1 2.74168 6.48025 14.6748
1 4.29117 12.787 0.816685
1 0.432331 4.87476 8.78514
1 4.90904 1.81644 8.56729
1 0.383497 15.6606 4.56387
1 7.75174 9.21615 4.97531
1 1.00115 8.34913 14.9483
1 0.5109 7.65925 4.26554
1 5.3872 3.92508 0.119256
1 4.72537 13.9681 7.6635
1 9.99307 4.79013 14.989
1 3.48188 2.11844 2.44975
1 10.4419 11.532 3.69881
1 3.52029 13.2469 4.73678
1 5.03698 8.0292 7.27947
1 6.79005 2.54868 5.56295
1 7.82139 11.5003 0.622742
1 6.19653 1.70077 10.4824
1 9.30228 0.503459 8.23617
1 9.04644 2.99838 5.49729
1 8.80228 14.8696 12.6528
1 4.37655 10.3297 7.35516
1 9.06792 2.30976 1.43888
1 5.98179 7.65456 5.14508
1 4.86677 16.2521 7.11638
1 2.94299 0.995947 15.4805
1 0.913093 3.36434 4.23965
1 3.66319 4.2305 11.1885
1 1.42729 16.1355 0.47627
1 2.48335 14.4438 1.84116
1 12.0874 6.97059 0.811176
1 14.5988 11.5543 10.3088
1 8.25412 0.674204 10.3434
1 12.7753 3.14293 12.3262
1 8.54669 12.6316 13.3773
1 3.11923 6.75214 6.92394
1 5.63727 10.4981 0.546016
1 13.7643 5.83755 10.2296
1 9.93683 5.73912 11.0103
1 9.09592 4.77552 8.92154
1 15.7721 4.89275 10.8886
1 3.78819 6.24438 2.38701
1 4.7355 7.63016 11.1223
1 11.5412 8.42761 8.89318
1 5.89562 1.15735 13.9267
1 5.41496 0.823926 1.67953
1 11.4435 11.6409 15.2482
1 6.97105 5.81584 4.00783
1 4.92371 10.962 12.9661
1 2.25681 10.3719 2.38401
1 15.1405 11.8936 8.03008
1 8.75495 8.64367 7.20503
1 0.212199 13.0807 16.2314
1 5.65904 3.65189 7.31088
1 1.71697 13.2729 9.72542
1 12.8231 6.81987 13.5537
1 11.7933 6.61185 7.34171
1 8.20183 12.7552 9.25075
1 14.9156 1.06307 9.88023
1 5.39583 6.1626 0.69586
1 12.2197 3.44255 1.77722
1 13.9648 8.88887 13.158
1 3.19898 4.11406 13.533
1 1.23094 4.3031 0.284593
1 10.9595 6.94119 15.0294
1 2.16984 1.93223 13.4815
1 1.14081 15.4985 6.81584
1 15.6574 1.07464 0.814038
1 14.0443 11.8352 2.45097
1 6.32891 11.1077 4.09824
1 15.1639 5.06839 7.11368
216
Atoms. Timestep: 1
1 0.835202 14.8856 14.8302
1 0.893077 11.7991 13.2937
1 5.40812 12.1061 6.10579
1 7.62536 6.60286 1.77818
1 15.414 15.7598 13.3961
1 8.10538 8.67018 12.7509
1 3.62721 4.24106 3.6581
1 3.50226 15.6707 3.79022
1 13.5531 13.617 10.4705
1 15.4588 2.5015 5.93262
1 14.0545 8.03446 9.46198
1 3.19978 3.01326 0.296794
1 1.46277 2.8877 8.30666
1 13.0974 16.2625 3.49757
1 10.9033 15.5171 11.7151
1 13.0845 8.89933 4.37285
1 1.75837 6.73702 8.82804
1 12.3545 6.82931 5.0412
1 5.98184 4.02359 10.894
1 15.1128 12.2688 14.4744
1 2.75637 6.35492 10.9111
1 10.3667 6.47299 3.90411
1 3.86209 4.61422 6.09631
1 6.09398 7.28976 9.22389
1 10.8848 5.34562 1.96966
1 12.2528 13.7597 12.4088
1 10.962 10.4265 11.164
1 10.3445 9.78961 2.12973
1 2.10407 6.43342 0.817343
1 3.01742 2.37057 9.87905
1 3.73399 9.74187 11.2587
1 4.63416 10.0816 2.66287
1 14.1461 10.0438 0.853276
1 7.59061 14.6175 10.694
1 9.64762 8.21229 10.8672
1 10.4083 11.8281 9.24023
1 7.21542 10.8537 12.4013
1 14.5034 7.49288 7.02584
1 7.03255 10.8952 10.0571
1 9.74707 10.3383 16.2216
1 4.4727 13.2648 13.341
1 9.22722 0.577053 16.0066
1 15.7149 8.29105 0.519563
1 13.3339 3.33412 14.5857
1 12.1755 2.74701 7.54107
1 8.96474 8.22549 3.16141
1 5.43799 3.48139 14.149
1 8.40135 15.3975 6.43661
1 14.1299 15.701 1.47983
1 13.566 10.554 14.9361
1 6.70293 2.75845 1.69208
1 2.99711 0.503175 5.90292
1 9.84531 2.76251 7.6908
1 16.0391 5.47631 4.82077
1 14.3104 6.3504 0.535367
1 11.2737 13.5987 0.410345
1 16.2699 1.17513 7.91057
1 2.35116 2.78281 6.16655
1 6.757 5.02792 8.94189
1 12.7412 15.2874 15.8944
1 12.5558 13.936 6.45782
1 14.2287 4.57198 2.04425
1 15.2558 13.664 1.7617
1 6.53844 0.210878 5.52462
1 8.91708 4.76324 0.855324
1 11.8469 13.6501 8.75847
1 12.9693 0.778163 8.59773
1 9.75414 1.61998 3.69487
1 2.13875 10.3771 14.8387
1 4.13582 8.09406 3.78961
1 9.46256 6.35999 7.20894
1 5.04804 0.00247278 15.7598
1 15.8728 14.2049 8.43319
1 4.9649 7.48952 14.8795
1 11.3102 1.27585 12.7822
1 1.13878 8.25628 2.10598
1 0.901955 6.08898 12.4886
1 1.36858 1.02069 3.04724
1 11.6891 14.6092 4.30865
1 6.05518 15.5661 3.35008
1 1.443 15.0016 11.3352
1 11.3734 0.794705 15.0991
1 11.9397 12.9667 2.62567
1 7.86839 8.79405 9.38375
1 1.30753 9.36493 11.0875
1 7.57276 13.1596 6.98377
1 8.17588 12.2009 2.87085
1 8.89466 11.46 5.81238
1 2.10137 11.7174 0.469479
1 14.106 15.5137 7.16901
1 13.2853 9.74674 11.0491
1 7.11144 8.44013 0.0444077
1 9.1184 14.6599 0.523255
1 2.16565 10.7278 6.40455
1 9.07357 4.35644 12.8004
1 2.4034 8.40999 5.37832
1 1.5728 11.689 4.21599
1 7.6856 13.3312 15.4843
1 0.243941 8.5206 9.11905
1 5.97573 3.72558 3.71668
1 12.1397 5.38328 11.797
1 13.8127 14.2109 14.0789
1 10.5875 10.2229 7.47093
1 9.14919 1.99724 12.261
1 0.293015 4.53716 14.3461
1 8.21006 14.5691 2.72578
1 2.13767 13.7692 13.2318
1 13.7484 11.9902 6.12201
1 4.74108 11.0165 9.57747
1 14.3769 5.41894 14.7284
1 13.0385 4.82212 8.2309
1 9.0978 8.48491 14.9127
1 11.428 3.04179 15.8878
1 14.5244 1.25346 15.0089
1 12.0265 2.00499 3.59851
1 8.91189 5.30324 5.20788
1 4.1483 13.2534 9.81813
1 14.6669 0.308808 5.17208
1 2.37439 13.332 7.10331
1 15.3186 9.10147 5.27921
1 6.22487 7.16995 12.9043
1 4.43079 9.80504 14.9033
1 2.69032 0.749246 11.5409
1 13.1513 3.08357 5.38216
1 15.3236 11.404 4.41218
1 5.38669 13.9771 15.393
1 9.55821 15.6079 4.34685
1 5.36152 14.4138 11.4746
1 16.1624 2.34235 13.473
1 10.7974 11.9929 13.0187
1 12.4854 8.92656 2.05824
1 5.30536 13.2098 2.96182
1 0.557943 11.5561 10.981
1 0.121846 10.0454 7.31124
1 8.16033 0.580473 13.8822
1 0.704842 13.767 3.26186
1 15.3536 15.2827 10.8604
1 14.9643 2.78239 11.505
1 16.133 3.23358 1.86243
1 0.0153991 8.28441 12.8267
1 6.82118 4.8847 12.8693
1 11.9361 10.6059 5.50524
1 4.94576 0.36789 11.9279
1 11.1444 15.7869 9.3667
1 13.7708 5.11479 4.26944
1 2.74167 6.48026 14.6748
1 4.29117 12.787 0.816686
1 0.432348 4.87476 8.78514
1 4.90903 1.81643 8.56729
1 0.383492 15.6606 4.56387
1 7.75174 9.21615 4.97531
1 1.00115 8.34912 14.9483
1 0.510901 7.65924 4.26555
1 5.3872 3.92508 0.11926
1 4.72537 13.9681 7.6635
1 9.99307 4.79013 14.989
1 3.48188 2.11844 2.44975
1 10.4419 11.532 3.69881
1 3.52029 13.2469 4.73678
1 5.03699 8.0292 7.27948
1 6.79005 2.54869 5.56294
1 7.82139 11.5003 0.622738
1 6.19653 1.70077 10.4824
1 9.30228 0.503467 8.23617
1 9.04643 2.99839 5.49729
1 8.80229 14.8696 12.6528
1 4.37654 10.3297 7.35515
1 9.06792 2.30976 1.43889
1 5.98179 7.65456 5.14507
1 4.86677 16.2521 7.11638
1 2.94299 0.995943 15.4805
1 0.913092 3.36434 4.23965
1 3.66319 4.2305 11.1885
1 1.42729 16.1355 0.476272
1 2.48335 14.4438 1.84116
1 12.0874 6.97059 0.811185
1 14.5988 11.5543 10.3088
1 8.25412 0.674201 10.3434
1 12.7753 3.14293 12.3262
1 8.54669 12.6316 13.3773
1 3.11923 6.75214 6.92394
1 5.63727 10.4981 0.546007
1 13.7643 5.83755 10.2296
1 9.93682 5.73912 11.0103
1 9.09593 4.77552 8.92154
1 15.7721 4.89274 10.8886
1 3.7882 6.24438 2.38702
1 4.7355 7.63016 11.1223
1 11.5412 8.42761 8.89318
1 5.89561 1.15736 13.9267
1 5.41496 0.823925 1.67953
1 11.4435 11.6409 15.2482
1 6.97106 5.81583 4.00783
1 4.92371 10.962 12.9661
1 2.25681 10.3719 2.38402
1 15.1405 11.8936 8.03007
1 8.75495 8.64367 7.20503
1 0.212194 13.0807 16.2314
1 5.65904 3.6519 7.31088
1 1.71697 13.2729 9.72542
1 12.8231 6.81987 13.5537
1 11.7933 6.61185 7.34171
1 8.20183 12.7552 9.25075
1 14.9156 1.06307 9.88023
1 5.39583 6.1626 0.695859
1 12.2197 3.44254 1.77723
1 13.9648 8.88887 13.158
1 3.19897 4.11405 13.533
1 1.23094 4.30311 0.284587
1 10.9595 6.94119 15.0294
1 2.16984 1.93224 13.4815
1 1.14081 15.4985 6.81584
1 15.6574 1.07463 0.814037
1 14.0443 11.8352 2.45097
1 6.32891 11.1077 4.09824
1 15.1639 5.06839 7.11367
