216
Atoms. Timestep: 0
1 2.93002 12.3809 0.304219
1 14.7128 9.50733 13.816
1 6.44962 12.4197 6.47515
1 4.29143 8.48003 3.17152
1 0.589738 14.9786 15.2338
1 7.33919 6.92387 8.73377
1 5.12667 3.07476 4.16643
1 4.91535 14.1515 2.63437
1 12.7947 14.3254 12.9478
1 15.0797 3.893 6.33242
1 14.0627 9.65265 9.80188
1 3.19959 3.57985 13.7098
1 15.2335 3.81278 8.744
1 12.7389 2.41097 2.14313
1 8.39015 12.0871 14.2265
1 15.4776 10.7777 6.18726
1 2.59978 5.4554 9.048
1 11.7397 9.88151 6.97715
1 6.7563 5.31349 10.5106
1 1.15433 14.9046 12.8604
1 16.2546 7.27102 10.9132
1 10.4389 5.22305 3.04709
1 4.08491 3.59763 6.27776
1 3.90246 7.98358 10.8301
1 8.76611 4.11033 1.8537
1 11.6222 12.7965 11.4796
1 9.07991 9.75955 11.7032
1 12.829 10.6019 1.46979
1 15.8174 8.65609 15.9138
1 1.30518 3.48915 8.78581
1 1.17421 11.1237 10.9926
1 5.89622 8.5002 5.2515
1 13.6639 6.82116 16.2388
1 6.82423 12.9546 11.0186
1 8.58712 7.18598 13.2376
1 11.3573 13.6606 9.29498
1 7.92538 9.71418 13.8773
1 2.3532 9.43794 8.51231
1 8.18474 11.0568 9.93898
1 12.0378 11.7092 15.7702
1 4.17542 11.1076 13.0257
1 8.85799 16.2613 0.0159126
1 13.8462 7.20703 13.7494
1 14.1118 3.65878 14.4724
1 11.3375 3.12812 7.70372
1 9.96555 8.05916 4.57316
1 6.11062 2.50208 13.2267
1 8.80781 15.6309 6.61593
1 13.4822 15.1647 2.75975
1 14.8225 12.0112 13.308
1 3.9492 4.20997 16.022
1 3.41873 0.968377 4.88469
1 9.14192 2.66153 8.4525
1 0.553376 7.03657 5.97663
1 13.9142 8.12757 3.19963
1 12.2784 15.1616 0.743369
1 2.55096 0.0931152 9.08929
1 1.81449 3.00574 6.47446
1 10.4807 5.26223 10.8102
1 12.3174 1.14139 0.138604
1 13.5629 0.270909 6.34307
1 14.1991 5.71871 2.92117
1 15.5271 0.0869622 2.23598
1 6.98253 16.2764 5.28701
1 6.46611 6.09569 12.7437
1 11.195 16.0235 9.65029
1 12.5864 1.20088 8.33632
1 8.86689 2.2018 3.15412
1 2.32568 11.3479 14.4531
1 8.20739 9.22685 5.71946
1 11.4582 6.72145 7.31607
1 5.79357 1.96613 0.825602
1 0.977543 12.7503 9.26336
1 1.6305 5.37458 13.4433
1 10.3505 1.90805 13.0928
1 1.28638 9.40517 3.24532
1 15.3723 5.69264 12.5977
1 0.993836 0.761556 5.68876
1 12.1586 16.2735 4.45801
1 7.05304 15.1729 3.2124
1 2.57285 14.3488 10.2511
1 10.2605 1.69292 15.438
1 13.8752 12.8872 3.32257
1 9.14298 7.3656 10.6625
1 15.7529 9.492 11.5411
1 7.85726 13.8292 7.67675
1 9.47553 11.7482 3.30708
1 11.6666 12.8743 5.60091
1 1.53749 11.8366 2.39746
1 15.111 1.76187 5.37899
1 13.9376 12.0025 10.9014
1 8.06811 7.00651 0.782787
1 10.0411 14.477 0.939751
1 2.81968 10.2221 5.25996
1 8.19746 2.21139 12.0754
1 1.04538 7.41341 8.3167
1 1.76106 7.26828 1.62468
1 5.26637 13.1674 12.8109
1 14.7785 7.62098 8.46681
1 2.36726 3.44326 1.58461
1 10.9594 6.29696 13.8629
1 13.1174 13.7453 15.2957
1 12.9966 13.0707 7.67719
1 7.67099 0.158269 10.8862
1 1.01669 2.57949 16.0305
1 9.21584 14.0892 3.12614
1 3.84118 15.0223 12.3533
1 15.324 12.9318 5.18246
1 5.12983 11.5744 9.80978
1 16.251 4.55156 15.2202
1 11.888 5.07765 8.92041
1 11.1414 8.36856 15.1965
1 10.0445 3.94047 16.0932
1 15.9057 0.646557 16.1994
1 11.1743 2.10208 3.87586
1 5.94526 6.15839 5.29367
1 4.32017 13.5504 8.82328
1 14.928 2.19982 3.06147
1 1.21744 13.4523 4.3129
1 13.5264 5.22951 5.22952
1 4.72984 4.28069 9.80184
1 5.58919 9.53315 14.0597
1 4.09434 2.75302 11.5215
1 12.3833 4.67778 1.78032
1 15.3082 9.70262 1.72896
1 6.52208 13.4567 14.7795
1 10.4415 14.8065 5.03154
1 6.47541 14.691 9.34478
1 0.539188 1.04954 12.2297
1 10.608 8.51121 8.63057
1 12.1106 9.04513 4.75971
1 6.33942 11.023 1.328
1 0.850847 12.4472 12.9571
1 4.40981 9.1375 7.10195
1 7.50856 15.5888 14.5291
1 1.17496 15.686 3.5483
1 15.8638 0.0627698 9.76289
1 14.0628 0.910932 12.4065
1 0.043404 4.1941 2.77744
1 12.4664 6.85561 11.6711
1 6.19729 4.48373 14.5412
1 15.6715 8.80128 4.82741
1 5.10641 0.509303 11.1711
1 11.4886 16.2733 12.0646
1 9.91458 5.92489 5.66958
1 2.88264 7.20704 14.3329
1 5.24825 9.3513 0.136494
1 14.0644 5.645 9.88111
1 4.86903 0.452435 8.52701
1 3.92606 1.79793 2.31336
1 7.57682 11.2719 4.72624
1 1.77811 9.11779 15.2274
1 2.78917 7.3687 5.09247
1 3.61624 6.51798 0.174854
1 4.37433 13.6445 6.29275
1 10.0354 7.42445 2.26148
1 3.16722 15.7551 2.18671
1 11.8742 11.248 3.67776
1 3.84149 12.4313 4.14302
1 4.91975 7.26367 8.69398
1 7.24419 2.2822 4.87793
1 8.72048 10.8668 1.17615
1 9.02197 15.3698 12.5781
1 9.05254 0.373159 8.87469
1 7.43677 3.30346 7.01656
1 9.81748 12.4016 16.0678
1 6.07651 10.5947 7.89952
1 6.41119 4.35632 1.10554
1 7.77217 5.60328 6.71837
1 4.87427 15.942 6.22035
1 3.62442 16.1434 14.5065
1 0.773286 4.75528 5.08999
1 1.99997 1.92227 10.4709
1 2.69414 14.811 0.0168176
1 5.27579 12.9523 0.563441
1 8.94675 8.9681 15.9248
1 15.1131 13.7449 9.50174
1 9.13391 12.9991 12.1627
1 14.0695 1.34897 14.8629
1 9.48744 12.4388 8.4994
1 3.99337 5.97889 6.692
1 5.63971 7.26724 1.34676
1 11.5253 3.95642 12.6365
1 8.40525 5.48648 15.2201
1 8.59524 3.82458 10.435
1 13.8378 3.65097 11.891
1 2.68072 5.64862 3.1874
1 2.15087 6.43423 11.2274
1 1.34135 11.1313 7.11753
1 5.73477 0.895975 14.9035
1 7.57841 0.737091 1.80872
1 12.3449 10.0782 14.1049
1 5.13014 5.29767 3.16404
1 3.40758 10.3073 10.8497
1 3.01261 9.67264 0.94823
1 14.7903 14.5711 6.89916
1 8.20631 9.15116 8.13927
1 15.3949 13.1278 15.6239
1 5.36239 2.79457 8.06669
1 1.9778 13.4791 6.66605
1 12.0048 8.86961 10.5558
1 13.7228 10.8446 7.7664
1 9.96784 11.3776 6.45206
1 14.2781 1.90454 9.83006
1 4.7661 7.64907 12.9846
1 12.3043 4.86966 15.5139
1 11.2719 10.5101 12.064
1 2.0173 1.58579 14.1305
1 15.9952 6.09535 0.790541
1 12.082 8.27096 1.20887
1 15.032 14.7543 11.9086
1 0.818589 15.4995 7.47617
1 11.4875 3.96122 5.4274
1 15.4852 12.129 1.59941
1 5.51043 10.7331 3.53305
1 13.6089 7.39507 6.28828
216
Atoms. Timestep: 1
1 2.93001 12.3809 0.304194
1 14.7128 9.50733 13.816
1 6.44962 12.4197 6.47515
1 4.29143 8.48003 3.17151
1 0.589714 14.9786 15.2338
1 7.33918 6.92387 8.73376
1 5.12668 3.07475 4.16642
1 4.91535 14.1515 2.63437
1 12.7947 14.3254 12.9478
1 15.0797 3.89301 6.33241
1 14.0627 9.65266 9.80187
1 3.19959 3.57985 13.7098
1 15.2335 3.81277 8.744
1 12.7389 2.41097 2.14313
1 8.39016 12.0871 14.2265
1 15.4776 10.7777 6.18727
1 2.59977 5.45539 9.048
1 11.7397 9.88151 6.97715
1 6.75629 5.31349 10.5106
1 1.15431 14.9046 12.8604
1 16.2546 7.27101 10.9132
1 10.4389 5.22305 3.04709
1 4.08491 3.59763 6.27777
1 3.90247 7.98358 10.8301
1 8.76611 4.11034 1.85365
1 11.6222 12.7965 11.4796
1 9.0799 9.75955 11.7032
1 12.829 10.6019 1.46976
1 15.8174 8.6561 15.9138
1 1.30515 3.48916 8.78581
1 1.17419 11.1237 10.9926
1 5.89622 8.50019 5.2515
1 13.6639 6.82116 16.2388
1 6.82424 12.9546 11.0186
1 8.58712 7.18597 13.2376
1 11.3573 13.6606 9.29498
1 7.92539 9.71418 13.8773
1 2.3532 9.43794 8.51231
1 8.18474 11.0568 9.93897
1 12.0378 11.7092 15.7702
1 4.17542 11.1076 13.0257
1 8.85799 16.2613 0.0158941
1 13.8462 7.20702 13.7494
1 14.1118 3.65878 14.4724
1 11.3375 3.12811 7.70372
1 9.96555 8.05916 4.57316
1 6.11062 2.50208 13.2267
1 8.80782 15.6309 6.61594
1 13.4822 15.1647 2.75975
1 14.8225 12.0112 13.308
1 3.94921 4.20997 16.022
1 3.41872 0.968352 4.88468
1 9.14192 2.66154 8.4525
1 0.553364 7.03658 5.97662
1 13.9142 8.12756 3.19963
1 12.2784 15.1616 0.743335
1 2.55095 0.0930789 9.0893
1 1.81447 3.00574 6.47445
1 10.4807 5.26224 10.8102
1 12.3174 1.14136 0.138597
1 13.5629 0.270888 6.34308
1 14.1991 5.71871 2.92116
1 15.5271 0.0869475 2.23598
1 6.98253 16.2764 5.28701
1 6.46612 6.09569 12.7437
1 11.195 16.0235 9.65028
1 12.5864 1.20087 8.33632
1 8.86689 2.2018 3.15412
1 2.32569 11.3479 14.4531
1 8.20739 9.22684 5.71945
1 11.4582 6.72145 7.31607
1 5.79357 1.96612 0.825577
1 0.977514 12.7503 9.26337
1 1.63047 5.37458 13.4433
1 10.3505 1.90802 13.0928
1 1.28636 9.40517 3.24532
1 15.3723 5.69264 12.5977
1 0.993816 0.761554 5.68875
1 12.1586 16.2735 4.458
1 7.05304 15.1729 3.21238
1 2.57284 14.3488 10.2511
1 10.2605 1.6929 15.438
1 13.8752 12.8872 3.32257
1 9.14299 7.3656 10.6625
1 15.7529 9.49202 11.5411
1 7.85726 13.8292 7.67675
1 9.47553 11.7482 3.30708
1 11.6666 12.8743 5.60091
1 1.53747 11.8366 2.39746
1 15.111 1.76185 5.379
1 13.9376 12.0025 10.9014
1 8.06812 7.0065 0.782768
1 10.0411 14.477 0.93974
1 2.81968 10.2221 5.25997
1 8.19747 2.21138 12.0754
1 1.04535 7.41341 8.31671
1 1.76104 7.26829 1.62466
1 5.26637 13.1674 12.8109
1 14.7785 7.62098 8.46681
1 2.36724 3.44327 1.58458
1 10.9594 6.29695 13.8629
1 13.1174 13.7453 15.2957
1 12.9966 13.0707 7.67719
1 7.67099 0.158254 10.8862
1 1.01668 2.57949 16.0305
1 9.21584 14.0892 3.12614
1 3.84119 15.0223 12.3533
1 15.324 12.9318 5.18246
1 5.12983 11.5744 9.80978
1 16.251 4.55157 15.2202
1 11.888 5.07765 8.92041
1 11.1414 8.36856 15.1965
1 10.0445 3.94048 16.0932
1 15.9057 0.646535 16.1994
1 11.1743 2.10206 3.87587
1 5.94526 6.1584 5.29367
1 4.32018 13.5504 8.82328
1 14.928 2.19982 3.06146
1 1.21742 13.4523 4.31291
1 13.5264 5.22951 5.22951
1 4.72985 4.28069 9.80184
1 5.58917 9.53315 14.0597
1 4.09433 2.75302 11.5215
1 12.3833 4.67778 1.78029
1 15.3082 9.7026 1.72894
1 6.52207 13.4567 14.7795
1 10.4415 14.8065 5.03154
1 6.47539 14.691 9.3448
1 0.539154 1.04949 12.2297
1 10.608 8.51121 8.63057
1 12.1106 9.04513 4.75971
1 6.33942 11.023 1.32801
1 0.85081 12.4472 12.9571
1 4.40981 9.1375 7.10195
1 7.50856 15.5888 14.5291
1 1.17494 15.686 3.5483
1 15.8638 0.0627464 9.76291
1 14.0628 0.910893 12.4065
1 0.0433802 4.1941 2.77743
1 12.4664 6.85561 11.6711
1 6.19729 4.48373 14.5412
1 15.6715 8.80127 4.82741
1 5.10641 0.509273 11.1711
1 11.4886 16.2733 12.0646
1 9.91458 5.92489 5.66958
1 2.88265 7.20704 14.3329
1 5.24825 9.3513 0.136459
1 14.0644 5.645 9.88111
1 4.86904 0.452406 8.52702
1 3.92605 1.79789 2.31337
1 7.57682 11.2719 4.72623
1 1.7781 9.11778 15.2274
1 2.78916 7.3687 5.09247
1 3.61623 6.51798 0.174822
1 4.37433 13.6445 6.29275
1 10.0354 7.42445 2.26147
1 3.16723 15.7551 2.18671
1 11.8742 11.248 3.67776
1 3.84148 12.4313 4.14302
1 4.91976 7.26367 8.69398
1 7.24418 2.28217 4.87794
1 8.72049 10.8668 1.17613
1 9.02197 15.3698 12.5781
1 9.05254 0.373128 8.87467
1 7.43677 3.30345 7.01656
1 9.81747 12.4016 16.0678
1 6.07651 10.5947 7.89952
1 6.4112 4.35633 1.10552
1 7.77217 5.60329 6.71837
1 4.87427 15.942 6.22035
1 3.62441 16.1434 14.5065
1 0.773276 4.75527 5.09001
1 1.99997 1.92227 10.4709
1 2.69414 14.811 0.0168015
1 5.2758 12.9523 0.563425
1 8.94675 8.96809 15.9248
1 15.1131 13.7449 9.50174
1 9.1339 12.9991 12.1627
1 14.0695 1.34897 14.8629
1 9.48744 12.4388 8.49941
1 3.99337 5.97889 6.692
1 5.63971 7.26724 1.34677
1 11.5253 3.95642 12.6365
1 8.40524 5.48648 15.2201
1 8.59524 3.82458 10.435
1 13.8378 3.65097 11.891
1 2.68073 5.64862 3.1874
1 2.15084 6.43424 11.2274
1 1.34133 11.1313 7.11752
1 5.73477 0.895957 14.9035
1 7.57841 0.737068 1.80872
1 12.3449 10.0782 14.1049
1 5.13013 5.29767 3.16404
1 3.40758 10.3073 10.8497
1 3.01259 9.67264 0.948204
1 14.7903 14.5711 6.89916
1 8.20631 9.15117 8.13928
1 15.3949 13.1278 15.6239
1 5.36239 2.79457 8.06669
1 1.97779 13.4791 6.66604
1 12.0048 8.86961 10.5558
1 13.7228 10.8446 7.76641
1 9.96784 11.3776 6.45206
1 14.2781 1.90454 9.83006
1 4.7661 7.64907 12.9846
1 12.3043 4.86966 15.5139
1 11.2719 10.5101 12.064
1 2.0173 1.58577 14.1305
1 15.9952 6.09535 0.790536
1 12.082 8.27095 1.20885
1 15.032 14.7543 11.9086
1 0.818569 15.4995 7.47619
1 11.4875 3.96122 5.4274
1 15.4852 12.129 1.59939
1 5.51044 10.7331 3.53304
1 13.6089 7.39507 6.28828
