216
Atoms. Timestep: 0
1 8.89127 3.47107 3.70021
1 4.10101 15.7637 15.0747
1 6.4749 3.54422 15.27
1 0.301607 13.7049 15.9675
1 1.6648 1.49688 7.56046
1 3.55114 9.64513 13.9698
1 15.4171 11.6576 0.0102419
1 3.25012 7.59582 0.900711
1 6.93972 1.44235 12.1533
1 8.33545 6.61997 9.92791
1 4.88834 1.38879 5.64681
1 14.4773 3.53897 2.155
1 4.61183 5.60656 11.8125
1 3.20869 11.6495 0.93222
1 7.43614 15.806 13.4286
1 8.40601 5.60007 7.71158
1 3.98715 9.68788 7.74785
1 0.53798 11.6784 12.7729
1 10.6421 11.6114 10.5076
1 10.684 13.6737 7.31566
1 0.869847 15.7405 6.56638
1 7.89452 1.20323 3.756
1 4.16799 3.5417 15.0493
1 6.96087 13.6603 0.0409581
1 13.6394 15.7826 14.7941
1 13.6724 3.54555 14.7709
1 14.8212 7.59723 6.35461
1 1.63627 9.65447 7.54948
1 11.2741 13.6629 11.6117
1 4.10121 11.657 15.0652
1 0.345612 5.56676 15.9625
1 12.2394 15.7578 1.97419
1 7.27528 9.59161 0.158599
1 10.7783 5.52683 7.31533
1 15.0755 13.6913 3.22691
1 15.1092 1.5283 3.23901
1 6.17636 9.59392 2.19492
1 7.5243 7.66328 13.0661
1 11.1639 11.6308 4.03269
1 7.1048 14.2957 5.5415
1 1.50462 11.69 10.6572
1 5.03087 3.54466 2.45253
1 3.85205 15.7411 10.8478
1 13.8403 15.7169 8.50594
1 4.08675 7.60482 4.57937
1 12.5397 5.59984 15.0443
1 0.52949 15.7434 12.7908
1 11.369 1.47095 0.911317
1 1.62274 13.708 7.55118
1 7.11827 8.91217 5.7364
1 7.2723 3.50574 8.16045
1 1.7444 15.7397 4.41686
1 6.91883 9.60017 11.7582
1 1.16514 1.5404 3.40446
1 0.778809 5.56845 9.66546
1 9.61145 7.64925 14.1768
1 3.26933 3.54164 0.932556
1 12.4967 9.64059 15.0245
1 14.5186 3.51923 12.6063
1 7.10312 8.5654 9.49273
1 3.93327 3.54205 10.8073
1 4.30238 3.55603 4.6421
1 4.10326 5.66779 7.82618
1 11.5137 5.54345 11.4005
1 7.20105 6.50455 5.81853
1 15.4158 15.7593 0.012004
1 3.52637 13.7124 14.0027
1 15.4305 7.60509 0.0115314
1 9.31655 13.5807 0.522461
1 1.48221 15.7363 10.6722
1 3.1703 15.7453 0.926946
1 9.32877 7.73695 0.412871
1 6.13752 1.4561 2.25401
1 1.22431 1.50559 13.8158
1 4.85145 11.7141 8.65207
1 7.23513 15.5413 8.73662
1 14.7927 11.664 6.35317
1 11.5651 3.48628 8.28714
1 4.91894 15.7162 2.43151
1 7.25656 1.57742 0.24413
1 0.906107 7.60395 6.56239
1 3.5545 1.51633 13.9693
1 11.5293 7.57683 8.29428
1 2.04534 1.52666 1.24716
1 13.693 7.6263 14.7602
1 12.4507 1.5481 15.1147
1 8.22023 9.67845 7.65367
1 10.5951 13.7137 13.8824
1 0.331536 9.63361 15.9644
1 3.82164 7.65205 10.8664
1 1.54531 3.536 10.654
1 12.5403 13.7149 15.1114
1 7.98997 13.6801 3.42014
1 1.16987 5.54918 3.38474
1 14.5144 11.6352 2.15774
1 7.46915 11.6711 13.1937
1 8.37854 3.65608 10.364
1 9.06929 11.5918 2.97441
1 0.328739 1.52163 15.9682
1 6.20091 5.59001 2.1819
1 3.98681 13.7198 7.72049
1 15.417 3.5478 0.0121389
1 1.73134 5.59308 7.5568
1 7.07127 0.415665 5.78804
1 4.04968 15.7101 4.57091
1 3.60272 5.57993 13.9446
1 1.13854 9.62391 3.38481
1 14.5141 7.60842 12.5955
1 8.34804 1.39257 7.61196
1 11.181 3.52159 4.13109
1 11.6863 9.62038 5.19256
1 9.30437 10.9375 0.536438
1 0.718988 9.65778 9.67604
1 10.6214 1.59045 13.723
1 14.1101 1.49611 5.35383
1 13.7154 9.61696 11.5977
1 4.82914 15.6958 8.73326
1 10.5693 7.4584 10.4075
1 4.88589 3.54392 8.65055
1 1.77614 7.59226 4.4192
1 11.1836 15.7091 4.04849
1 15.1034 5.56203 3.21344
1 13.7235 1.49379 11.6209
1 4.85501 9.57755 5.61316
1 7.49536 3.5858 13.1142
1 6.38636 15.7942 15.4532
1 2.02536 13.69 1.24076
1 4.88679 7.77692 8.8116
1 14.6941 5.55831 9.44486
1 4.02441 1.47578 7.7776
1 9.56636 15.8129 14.3508
1 4.97262 7.5861 2.44141
1 0.883194 11.6723 6.54237
1 4.5567 13.7378 11.8993
1 7.98419 9.55525 3.64161
1 1.12643 13.6859 3.39107
1 14.6444 1.48218 9.48766
1 2.07239 5.57 1.23214
1 1.22228 9.6451 13.81
1 1.19995 13.7081 13.819
1 13.6628 13.7028 11.6443
1 7.00288 5.65315 11.86
1 14.6308 9.63919 9.46917
1 8.44893 1.06022 10.288
1 14.7865 15.7248 6.37746
1 4.58546 1.49652 11.8591
1 8.37939 14.0805 10.4643
1 14.0664 13.6919 5.33979
1 10.6585 9.61983 7.35651
1 4.94567 5.69498 5.67928
1 14.1223 5.56274 5.33387
1 0.965072 3.55126 6.56353
1 4.18391 7.6155 15.028
1 11.1796 7.59941 4.03079
1 10.6569 9.67182 13.6402
1 1.26001 5.5751 13.8099
1 15.086 9.61786 3.23708
1 1.82783 11.6562 4.41819
1 10.7628 5.67885 13.5686
1 0.567615 7.60776 12.7846
1 6.98213 3.49459 5.63137
1 7.95683 5.73068 3.69144
1 1.914 3.55006 4.44534
1 14.0644 9.62514 5.34577
1 13.669 11.6692 14.7689
1 4.97448 11.6153 2.43362
1 8.26371 13.6574 7.4661
1 6.40494 11.5796 15.3014
1 9.58234 3.72287 14.1497
1 3.88365 11.7188 10.8075
1 10.746 1.44361 7.32778
1 4.83236 13.7171 5.56559
1 11.4666 15.6861 8.37488
1 9.12203 15.6616 2.88924
1 12.2087 11.5888 1.94516
1 9.35315 4.80658 0.0579056
1 14.5989 13.6941 9.50476
1 11.7462 1.46414 5.18316
1 11.3591 1.48896 11.5211
1 14.8706 3.53249 6.34849
1 6.07136 13.6699 2.1456
1 4.17275 11.6365 4.59967
1 13.8955 7.59089 8.48007
1 0.700712 13.7113 9.67908
1 1.47548 7.62047 10.6569
1 10.7235 3.52689 10.4584
1 14.542 15.7605 2.17217
1 12.1682 7.61652 1.91354
1 10.4603 15.7171 10.5126
1 14.4879 7.59625 2.14027
1 11.3535 9.54762 11.4293
1 9.5237 11.6409 14.3727
1 9.32559 16.2339 0.459756
1 11.6952 13.6704 5.16479
1 13.8348 5.56012 11.5902
1 6.50864 7.64011 15.1892
1 0.737757 1.50305 9.682
1 11.4777 11.6531 8.32922
1 9.09902 7.62599 2.91165
1 11.6774 13.6835 0.970705
1 14.4575 15.7359 12.6264
1 11.503 5.57684 0.847331
1 13.8496 11.6681 8.48169
1 0.582699 3.53764 12.7727
1 8.2931 11.55 10.4659
1 4.5456 9.6905 11.8547
1 12.1468 3.56018 1.99431
1 2.04818 9.61363 1.23895
1 14.4668 11.6652 12.5957
1 7.11063 5.62444 0.0466848
1 11.3708 9.60633 0.769741
1 7.25749 11.7066 8.37271
1 13.9224 3.51911 8.46992
1 11.7551 5.57448 5.16952
1 6.89051 13.827 12.2974
1 9.17103 2.86796 1.34273
216
Atoms. Timestep: 1
1 8.89127 3.47107 3.70021
1 4.10099 15.7637 15.0747
1 6.47492 3.54422 15.27
1 0.30159 13.7049 15.9675
1 1.6648 1.49686 7.56045
1 3.55113 9.64512 13.9698
1 15.4171 11.6576 0.0102141
1 3.25014 7.59583 0.900676
1 6.93972 1.44233 12.1533
1 8.33545 6.61998 9.92791
1 4.88833 1.38876 5.6468
1 14.4773 3.53897 2.15498
1 4.61183 5.60655 11.8125
1 3.2087 11.6495 0.932207
1 7.43614 15.806 13.4286
1 8.40601 5.60007 7.71158
1 3.98716 9.68788 7.74785
1 0.537951 11.6784 12.7729
1 10.6421 11.6114 10.5076
1 10.684 13.6737 7.31566
1 0.869824 15.7405 6.56638
1 7.89453 1.20321 3.75599
1 4.16797 3.54171 15.0493
1 6.96086 13.6603 0.0409371
1 13.6394 15.7826 14.7941
1 13.6724 3.54556 14.7709
1 14.8212 7.59723 6.35461
1 1.63626 9.65446 7.54949
1 11.2741 13.6629 11.6117
1 4.10121 11.657 15.0652
1 0.345591 5.56677 15.9625
1 12.2394 15.7578 1.97418
1 7.27527 9.59161 0.158581
1 10.7783 5.52683 7.31533
1 15.0755 13.6913 3.22691
1 15.1092 1.52828 3.239
1 6.17637 9.59392 2.19491
1 7.5243 7.66326 13.0661
1 11.1639 11.6308 4.03269
1 7.10481 14.2957 5.5415
1 1.50462 11.69 10.6572
1 5.03087 3.54466 2.45252
1 3.85205 15.7411 10.8478
1 13.8403 15.7169 8.50596
1 4.08674 7.60482 4.57938
1 12.5397 5.59983 15.0443
1 0.529462 15.7434 12.7908
1 11.369 1.47093 0.911295
1 1.62275 13.708 7.55118
1 7.11827 8.91217 5.7364
1 7.2723 3.50574 8.16045
1 1.74439 15.7397 4.41685
1 6.91883 9.60018 11.7582
1 1.16511 1.54037 3.40447
1 0.778767 5.56845 9.66545
1 9.61144 7.64926 14.1768
1 3.26933 3.54164 0.932532
1 12.4967 9.64059 15.0245
1 14.5186 3.51923 12.6063
1 7.10312 8.56539 9.49273
1 3.93326 3.54205 10.8073
1 4.30238 3.55604 4.64211
1 4.10325 5.66779 7.82617
1 11.5137 5.54346 11.4005
1 7.20105 6.50455 5.81853
1 15.4158 15.7593 0.011973
1 3.52638 13.7124 14.0027
1 15.4305 7.60508 0.0114932
1 9.31655 13.5807 0.522445
1 1.48221 15.7363 10.6722
1 3.17031 15.7453 0.92692
1 9.32876 7.73695 0.412847
1 6.13751 1.45608 2.25401
1 1.2243 1.50557 13.8158
1 4.85144 11.7141 8.65207
1 7.23515 15.5413 8.73662
1 14.7927 11.664 6.35318
1 11.5651 3.48628 8.28716
1 4.91895 15.7162 2.43151
1 7.25657 1.5774 0.244104
1 0.906074 7.60396 6.56239
1 3.55451 1.51631 13.9693
1 11.5293 7.57683 8.29428
1 2.04534 1.52665 1.24714
1 13.693 7.62629 14.7602
1 12.4507 1.54808 15.1147
1 8.22024 9.67845 7.65367
1 10.5951 13.7137 13.8824
1 0.33152 9.63361 15.9644
1 3.82163 7.65205 10.8664
1 1.54533 3.536 10.654
1 12.5403 13.7149 15.1114
1 7.98997 13.6801 3.42014
1 1.16983 5.54918 3.38473
1 14.5144 11.6352 2.15773
1 7.46915 11.6711 13.1937
1 8.37854 3.65608 10.364
1 9.06928 11.5918 2.9744
1 0.328703 1.5216 15.9682
1 6.20091 5.59001 2.18189
1 3.98681 13.7198 7.72048
1 15.417 3.5478 0.0121235
1 1.73134 5.59308 7.5568
1 7.07127 0.415631 5.78805
1 4.0497 15.7101 4.57093
1 3.60272 5.57992 13.9446
1 1.13851 9.62392 3.38481
1 14.5141 7.60841 12.5955
1 8.34803 1.39256 7.61197
1 11.181 3.52159 4.1311
1 11.6863 9.62038 5.19256
1 9.30437 10.9375 0.536416
1 0.718956 9.65778 9.67603
1 10.6214 1.59043 13.723
1 14.1101 1.49609 5.35384
1 13.7154 9.61697 11.5977
1 4.82914 15.6958 8.73325
1 10.5693 7.4584 10.4075
1 4.8859 3.54392 8.65055
1 1.77614 7.59226 4.4192
1 11.1836 15.7091 4.0485
1 15.1034 5.56204 3.21344
1 13.7235 1.49376 11.6209
1 4.85501 9.57755 5.61316
1 7.49536 3.5858 13.1142
1 6.38639 15.7942 15.4532
1 2.02534 13.69 1.24074
1 4.88679 7.77693 8.81161
1 14.6941 5.55831 9.44487
1 4.02441 1.47575 7.77761
1 9.56637 15.8129 14.3508
1 4.97262 7.5861 2.44141
1 0.883154 11.6723 6.54236
1 4.5567 13.7378 11.8993
1 7.98419 9.55525 3.64161
1 1.1264 13.6859 3.39106
1 14.6444 1.48216 9.48764
1 2.07238 5.56998 1.23212
1 1.22228 9.6451 13.81
1 1.19995 13.7081 13.819
1 13.6628 13.7028 11.6443
1 7.00288 5.65316 11.86
1 14.6308 9.63919 9.46917
1 8.44894 1.0602 10.288
1 14.7865 15.7248 6.37745
1 4.58545 1.4965 11.8591
1 8.37939 14.0805 10.4643
1 14.0664 13.6919 5.33979
1 10.6585 9.61983 7.35651
1 4.94567 5.69497 5.67928
1 14.1223 5.56274 5.33387
1 0.965034 3.55126 6.56353
1 4.18389 7.61551 15.028
1 11.1796 7.59941 4.0308
1 10.6569 9.67182 13.6402
1 1.26001 5.57509 13.8099
1 15.086 9.61784 3.23708
1 1.82783 11.6562 4.41819
1 10.7628 5.67884 13.5686
1 0.567583 7.60776 12.7846
1 6.98213 3.49459 5.63137
1 7.95683 5.73067 3.69144
1 1.91401 3.55006 4.44534
1 14.0644 9.62514 5.34577
1 13.669 11.6692 14.7689
1 4.97447 11.6153 2.43363
1 8.26371 13.6574 7.4661
1 6.40494 11.5796 15.3014
1 9.58234 3.72288 14.1497
1 3.88365 11.7188 10.8075
1 10.746 1.44359 7.32779
1 4.83235 13.7171 5.56559
1 11.4666 15.6861 8.37487
1 9.12202 15.6616 2.88925
1 12.2087 11.5888 1.94516
1 9.35315 4.80657 0.0578645
1 14.5989 13.6941 9.50477
1 11.7462 1.46412 5.18315
1 11.3591 1.48895 11.5211
1 14.8706 3.53249 6.3485
1 6.07137 13.6699 2.1456
1 4.17275 11.6365 4.59966
1 13.8955 7.5909 8.48007
1 0.700677 13.7113 9.67908
1 1.47549 7.62047 10.6569
1 10.7235 3.52688 10.4584
1 14.542 15.7605 2.17218
1 12.1682 7.61652 1.91353
1 10.4603 15.7171 10.5126
1 14.4879 7.59626 2.14028
1 11.3535 9.54762 11.4293
1 9.5237 11.6409 14.3727
1 9.32558 16.2339 0.459738
1 11.6952 13.6704 5.16479
1 13.8348 5.56012 11.5902
1 6.50866 7.64011 15.1892
1 0.737732 1.50303 9.68201
1 11.4777 11.6531 8.32922
1 9.09903 7.62599 2.91164
1 11.6774 13.6835 0.970667
1 14.4575 15.7359 12.6264
1 11.503 5.57684 0.847302
1 13.8496 11.6681 8.48169
1 0.582673 3.53765 12.7727
1 8.2931 11.55 10.4659
1 4.5456 9.6905 11.8547
1 12.1468 3.56018 1.99431
1 2.04816 9.61363 1.23893
1 14.4668 11.6652 12.5957
1 7.11063 5.62445 0.0466666
1 11.3708 9.60633 0.769712
1 7.25749 11.7066 8.37271
1 13.9224 3.5191 8.46992
1 11.7551 5.57448 5.16951
1 6.89051 13.827 12.2974
1 9.17102 2.86793 1.34272
