
2160 atoms
1 atom types	

0.0 162.9 xlo xhi
0.0 162.9 ylo yhi
0.0 162.9 zlo zhi

Masses

1 28.0855

Atoms				

1	1	0.71446	14.878	14.86
2	1	0.70627	12.005	13.459
3	1	5.4245	12.255	6.2932
4	1	8.0233	6.4979	2.0653
5	1	15.088	15.782	13.601
6	1	7.8134	8.5081	13.127
7	1	4.0971	4.4339	3.6927
8	1	3.5742	0.75981	3.0388
9	1	13.664	13.569	10.641
10	1	15.152	2.1593	6.0016
11	1	14.135	8.0987	9.8303
12	1	3.1874	3.1623	0.36326
13	1	1.4788	3.0053	8.2873
14	1	13.201	16.266	3.526
15	1	10.968	15.425	11.769
16	1	13.013	8.5941	4.2602
17	1	1.8411	6.6718	8.8981
18	1	12.478	6.5696	4.9267
19	1	6.0729	3.874	10.765
20	1	14.977	12.373	14.683
21	1	2.8077	6.1511	10.922
22	1	10.622	6.1317	3.9309
23	1	3.8769	4.6422	6.0423
24	1	6.1176	7.2549	9.1315
25	1	11.089	5.1169	2.0368
26	1	12.212	13.686	12.491
27	1	10.967	10.23	11.294
28	1	10.446	9.6015	2.2513
29	1	2.2656	6.6692	0.95957
30	1	2.9764	2.3537	9.7839
31	1	3.678	9.7439	11.263
32	1	4.4431	10.022	2.7039
33	1	14.097	10.023	0.98045
34	1	7.5728	14.507	10.664
35	1	9.3713	8.1682	11.294
36	1	10.617	11.633	9.2145
37	1	7.0363	10.771	12.54
38	1	14.969	8.312	6.8477
39	1	6.9746	10.802	10.054
40	1	9.5604	10.143	0.1654
41	1	4.2725	13.298	13.347
42	1	9.123	0.50437	16.014
43	1	15.667	8.3215	0.61305
44	1	13.465	3.2294	14.469
45	1	12.482	2.824	7.5258
46	1	9.3658	7.9296	3.3056
47	1	5.6965	3.2377	14.154
48	1	8.4052	15.317	6.4281
49	1	14.111	15.808	1.3936
50	1	13.525	10.575	15.114
51	1	6.5378	2.6032	1.7976
52	1	3.2051	0.94588	5.4988
53	1	10.052	2.7112	7.7296
54	1	15.959	5.4545	5.0195
55	1	14.306	6.2698	0.52562
56	1	11.141	13.481	0.57045
57	1	0.07613	1.3579	7.8132
58	1	2.4133	3.0921	6.2264
59	1	6.816	4.9463	8.8879
60	1	12.53	15.208	16.009
61	1	12.891	13.807	6.5652
62	1	14.331	4.5322	2.0285
63	1	15.379	13.86	1.8074
64	1	6.4945	0.14292	5.5456
65	1	9.1737	4.5779	0.97429
66	1	12.031	13.619	8.8115
67	1	13.308	0.66653	8.6094
68	1	9.8449	1.5947	3.7513
69	1	1.9909	10.729	15.038
70	1	4.4087	8.0892	3.7405
71	1	9.7907	6.2973	7.2698
72	1	4.9353	0.06294	15.758
73	1	0.15698	13.74	7.9347
74	1	4.2366	6.2162	14.41
75	1	11.304	1.1662	12.754
76	1	0.97485	8.1594	2.0914
77	1	0.77545	6.1344	12.328
78	1	0.86741	2.4157	3.2371
79	1	11.843	14.567	4.4455
80	1	6.051	15.398	3.3506
81	1	1.3284	15.111	11.343
82	1	11.265	0.81686	15.216
83	1	11.928	12.836	2.8377
84	1	7.9309	8.6961	9.3901
85	1	1.2531	9.6065	11.243
86	1	7.7958	12.851	6.7676
87	1	7.5351	12.157	3.0686
88	1	8.637	11.386	4.9001
89	1	1.8899	11.902	0.62425
90	1	14.548	15.309	7.1343
91	1	13.337	9.7086	11.212
92	1	6.9915	7.5726	0.41539
93	1	8.9353	14.549	0.62222
94	1	2.1499	10.059	6.2808
95	1	9.0134	4.1764	12.878
96	1	2.4625	8.0064	5.2386
97	1	1.3687	11.339	4.4299
98	1	7.4365	13.147	15.669
99	1	0.37189	8.5028	9.4171
100	1	6.1722	3.7669	3.7481
101	1	12.201	5.3302	11.737
102	1	13.617	14.25	14.21
103	1	11.172	9.8796	7.5584
104	1	9.1551	1.7775	12.281
105	1	0.3112	4.8746	14.203
106	1	8.1269	14.44	2.8308
107	1	1.9219	13.919	13.319
108	1	13.902	11.791	6.1853
109	1	4.5864	10.993	9.5076
110	1	14.36	5.3608	14.72
111	1	13.323	4.9897	8.0829
112	1	8.8872	8.1992	15.235
113	1	11.785	2.9327	15.8
114	1	14.996	1.5864	14.578
115	1	12.12	1.95	3.5665
116	1	9.1574	5.2398	5.2555
117	1	3.8781	13.311	9.5769
118	1	14.865	0.18554	5.1042
119	1	1.9199	14.157	6.5242
120	1	15.07	8.8818	4.6913
121	1	5.9605	6.885	12.934
122	1	4.0538	9.7978	15.088
123	1	2.6946	0.8181	11.499
124	1	13.224	2.9865	5.3919
125	1	15.297	11.202	4.4588
126	1	5.1016	14.031	15.522
127	1	9.6347	15.485	4.4068
128	1	5.216	14.342	11.336
129	1	0.14386	2.7105	13.334
130	1	10.673	11.882	13.148
131	1	12.415	8.7938	1.9996
132	1	4.3251	13.634	3.2532
133	1	0.48113	11.655	11.261
134	1	0.28258	9.7369	7.7005
135	1	8.1054	0.39828	13.859
136	1	0.81405	14.682	3.0882
137	1	15.316	15.439	11.221
138	1	15.062	2.8226	11.388
139	1	16.092	3.2452	1.4758
140	1	0.09088	8.3496	12.936
141	1	6.8602	4.6347	12.748
142	1	12.087	10.407	5.5681
143	1	4.9085	0.29528	11.81
144	1	11.325	15.692	9.3622
145	1	13.972	4.9767	4.3011
146	1	2.8732	7.7089	15.181
147	1	3.5925	13.557	1.0675
148	1	0.46731	5.0363	8.6754
149	1	4.8602	1.7019	8.492
150	1	0.37216	0.23302	4.1862
151	1	8.1768	9.0183	5.2058
152	1	0.89216	8.6905	14.988
153	1	0.48506	7.4491	4.132
154	1	5.4727	3.7976	0.08507
155	1	4.1203	14.067	7.3595
156	1	10.053	4.5693	15.133
157	1	2.9554	2.7273	2.609
158	1	10.689	11.275	3.9357
159	1	2.1653	13.456	4.3995
160	1	5.1557	8.0125	7.175
161	1	6.8786	2.5269	5.5587
162	1	7.5147	11.271	0.78038
163	1	6.1431	1.5648	10.24
164	1	9.421	0.4261	8.3492
165	1	9.1168	2.9599	5.5619
166	1	8.7067	14.695	12.523
167	1	4.3539	10.322	7.2982
168	1	8.7296	2.2478	1.5396
169	1	6.2454	7.748	5.1139
170	1	4.7535	0	6.9146
171	1	2.9077	1.2262	15.433
172	1	0.54964	3.4893	5.0085
173	1	3.8117	4.177	11.064
174	1	1.3216	0.11146	0.01468
175	1	2.3298	15.456	1.7345
176	1	12.104	6.8527	0.85143
177	1	14.634	11.566	10.359
178	1	8.1275	0.59895	10.237
179	1	12.81	3.0234	12.3
180	1	8.419	12.601	13.469
181	1	3.2219	6.7279	6.9307
182	1	5.6931	9.709	0.6406
183	1	13.694	5.8653	10.18
184	1	10.007	5.6573	11.132
185	1	9.222	4.7645	8.9165
186	1	15.651	4.9701	10.704
187	1	4.1071	6.3031	2.2072
188	1	4.6371	7.5498	11.068
189	1	12.969	8.4581	7.9526
190	1	5.9166	0.94604	13.907
191	1	5.4726	0.61741	1.845
192	1	11.241	11.453	15.348
193	1	7.1823	5.7896	4.1087
194	1	4.7216	10.872	13.143
195	1	2.0867	10.348	2.3792
196	1	15.289	11.618	8.0313
197	1	9.1835	8.5303	7.3553
198	1	0	13.137	0
199	1	5.6883	3.607	7.2503
200	1	1.4867	13.482	9.9469
201	1	12.776	6.7442	13.609
202	1	12.044	6.4963	7.1599
203	1	8.2885	12.531	9.1506
204	1	15.082	1.0278	9.8222
205	1	5.4215	5.9791	0.2169
206	1	12.413	3.3661	1.73
207	1	13.96	8.8573	13.283
208	1	3.6808	4.012	13.403
209	1	1.3817	4.6013	0.09666
210	1	10.908	6.7832	15.127
211	1	2.3092	2.1405	13.431
212	1	1.3719	0.01762	6.238
213	1	15.611	1.2121	0.44399
214	1	14.225	11.958	2.4978
215	1	5.3685	11.89	3.9009
216	1	15.321	5.8725	7.1177
217	1	17.004	14.878	14.86
218	1	16.996	12.005	13.459
219	1	21.715	12.255	6.2932
220	1	24.313	6.4979	2.0653
221	1	31.378	15.782	13.601
222	1	24.103	8.5081	13.127
223	1	20.387	4.4339	3.6927
224	1	19.864	0.75981	3.0388
225	1	29.954	13.569	10.641
226	1	31.442	2.1593	6.0016
227	1	30.425	8.0987	9.8303
228	1	19.477	3.1623	0.36326
229	1	17.769	3.0053	8.2873
230	1	29.491	16.266	3.526
231	1	27.258	15.425	11.769
232	1	29.303	8.5941	4.2602
233	1	18.131	6.6718	8.8981
234	1	28.768	6.5696	4.9267
235	1	22.363	3.874	10.765
236	1	31.267	12.373	14.683
237	1	19.098	6.1511	10.922
238	1	26.912	6.1317	3.9309
239	1	20.167	4.6422	6.0423
240	1	22.408	7.2549	9.1315
241	1	27.379	5.1169	2.0368
242	1	28.502	13.686	12.491
243	1	27.257	10.23	11.294
244	1	26.736	9.6015	2.2513
245	1	18.556	6.6692	0.95957
246	1	19.266	2.3537	9.7839
247	1	19.968	9.7439	11.263
248	1	20.733	10.022	2.7039
249	1	30.387	10.023	0.98045
250	1	23.863	14.507	10.664
251	1	25.661	8.1682	11.294
252	1	26.907	11.633	9.2145
253	1	23.326	10.771	12.54
254	1	31.259	8.312	6.8477
255	1	23.265	10.802	10.054
256	1	25.85	10.143	0.1654
257	1	20.562	13.298	13.347
258	1	25.413	0.50437	16.014
259	1	31.957	8.3215	0.61305
260	1	29.755	3.2294	14.469
261	1	28.772	2.824	7.5258
262	1	25.656	7.9296	3.3056
263	1	21.986	3.2377	14.154
264	1	24.695	15.317	6.4281
265	1	30.401	15.808	1.3936
266	1	29.815	10.575	15.114
267	1	22.828	2.6032	1.7976
268	1	19.495	0.94588	5.4988
269	1	26.342	2.7112	7.7296
270	1	32.249	5.4545	5.0195
271	1	30.596	6.2698	0.52562
272	1	27.431	13.481	0.57045
273	1	16.366	1.3579	7.8132
274	1	18.703	3.0921	6.2264
275	1	23.106	4.9463	8.8879
276	1	28.82	15.208	16.009
277	1	29.181	13.807	6.5652
278	1	30.621	4.5322	2.0285
279	1	31.669	13.86	1.8074
280	1	22.785	0.14292	5.5456
281	1	25.464	4.5779	0.97429
282	1	28.321	13.619	8.8115
283	1	29.598	0.66653	8.6094
284	1	26.135	1.5947	3.7513
285	1	18.281	10.729	15.038
286	1	20.699	8.0892	3.7405
287	1	26.081	6.2973	7.2698
288	1	21.225	0.06294	15.758
289	1	16.447	13.74	7.9347
290	1	20.527	6.2162	14.41
291	1	27.594	1.1662	12.754
292	1	17.265	8.1594	2.0914
293	1	17.065	6.1344	12.328
294	1	17.157	2.4157	3.2371
295	1	28.133	14.567	4.4455
296	1	22.341	15.398	3.3506
297	1	17.618	15.111	11.343
298	1	27.555	0.81686	15.216
299	1	28.218	12.836	2.8377
300	1	24.221	8.6961	9.3901
301	1	17.543	9.6065	11.243
302	1	24.086	12.851	6.7676
303	1	23.825	12.157	3.0686
304	1	24.927	11.386	4.9001
305	1	18.18	11.902	0.62425
306	1	30.838	15.309	7.1343
307	1	29.627	9.7086	11.212
308	1	23.282	7.5726	0.41539
309	1	25.225	14.549	0.62222
310	1	18.44	10.059	6.2808
311	1	25.303	4.1764	12.878
312	1	18.753	8.0064	5.2386
313	1	17.659	11.339	4.4299
314	1	23.727	13.147	15.669
315	1	16.662	8.5028	9.4171
316	1	22.462	3.7669	3.7481
317	1	28.491	5.3302	11.737
318	1	29.907	14.25	14.21
319	1	27.462	9.8796	7.5584
320	1	25.445	1.7775	12.281
321	1	16.601	4.8746	14.203
322	1	24.417	14.44	2.8308
323	1	18.212	13.919	13.319
324	1	30.192	11.791	6.1853
325	1	20.876	10.993	9.5076
326	1	30.65	5.3608	14.72
327	1	29.613	4.9897	8.0829
328	1	25.177	8.1992	15.235
329	1	28.075	2.9327	15.8
330	1	31.286	1.5864	14.578
331	1	28.41	1.95	3.5665
332	1	25.447	5.2398	5.2555
333	1	20.168	13.311	9.5769
334	1	31.155	0.18554	5.1042
335	1	18.21	14.157	6.5242
336	1	31.36	8.8818	4.6913
337	1	22.25	6.885	12.934
338	1	20.344	9.7978	15.088
339	1	18.985	0.8181	11.499
340	1	29.514	2.9865	5.3919
341	1	31.587	11.202	4.4588
342	1	21.392	14.031	15.522
343	1	25.925	15.485	4.4068
344	1	21.506	14.342	11.336
345	1	16.434	2.7105	13.334
346	1	26.963	11.882	13.148
347	1	28.705	8.7938	1.9996
348	1	20.615	13.634	3.2532
349	1	16.771	11.655	11.261
350	1	16.573	9.7369	7.7005
351	1	24.395	0.39828	13.859
352	1	17.104	14.682	3.0882
353	1	31.606	15.439	11.221
354	1	31.352	2.8226	11.388
355	1	32.382	3.2452	1.4758
356	1	16.381	8.3496	12.936
357	1	23.15	4.6347	12.748
358	1	28.377	10.407	5.5681
359	1	21.198	0.29528	11.81
360	1	27.615	15.692	9.3622
361	1	30.262	4.9767	4.3011
362	1	19.163	7.7089	15.181
363	1	19.883	13.557	1.0675
364	1	16.757	5.0363	8.6754
365	1	21.15	1.7019	8.492
366	1	16.662	0.23302	4.1862
367	1	24.467	9.0183	5.2058
368	1	17.182	8.6905	14.988
369	1	16.775	7.4491	4.132
370	1	21.763	3.7976	0.08507
371	1	20.41	14.067	7.3595
372	1	26.343	4.5693	15.133
373	1	19.245	2.7273	2.609
374	1	26.979	11.275	3.9357
375	1	18.455	13.456	4.3995
376	1	21.446	8.0125	7.175
377	1	23.169	2.5269	5.5587
378	1	23.805	11.271	0.78038
379	1	22.433	1.5648	10.24
380	1	25.711	0.4261	8.3492
381	1	25.407	2.9599	5.5619
382	1	24.997	14.695	12.523
383	1	20.644	10.322	7.2982
384	1	25.02	2.2478	1.5396
385	1	22.535	7.748	5.1139
386	1	21.044	0	6.9146
387	1	19.198	1.2262	15.433
388	1	16.84	3.4893	5.0085
389	1	20.102	4.177	11.064
390	1	17.612	0.11146	0.01468
391	1	18.62	15.456	1.7345
392	1	28.394	6.8527	0.85143
393	1	30.924	11.566	10.359
394	1	24.418	0.59895	10.237
395	1	29.1	3.0234	12.3
396	1	24.709	12.601	13.469
397	1	19.512	6.7279	6.9307
398	1	21.983	9.709	0.6406
399	1	29.984	5.8653	10.18
400	1	26.297	5.6573	11.132
401	1	25.512	4.7645	8.9165
402	1	31.941	4.9701	10.704
403	1	20.397	6.3031	2.2072
404	1	20.927	7.5498	11.068
405	1	29.259	8.4581	7.9526
406	1	22.207	0.94604	13.907
407	1	21.763	0.61741	1.845
408	1	27.531	11.453	15.348
409	1	23.472	5.7896	4.1087
410	1	21.012	10.872	13.143
411	1	18.377	10.348	2.3792
412	1	31.579	11.618	8.0313
413	1	25.474	8.5303	7.3553
414	1	16.29	13.137	0
415	1	21.978	3.607	7.2503
416	1	17.777	13.482	9.9469
417	1	29.066	6.7442	13.609
418	1	28.334	6.4963	7.1599
419	1	24.578	12.531	9.1506
420	1	31.372	1.0278	9.8222
421	1	21.712	5.9791	0.2169
422	1	28.703	3.3661	1.73
423	1	30.25	8.8573	13.283
424	1	19.971	4.012	13.403
425	1	17.672	4.6013	0.09666
426	1	27.198	6.7832	15.127
427	1	18.599	2.1405	13.431
428	1	17.662	0.01762	6.238
429	1	31.901	1.2121	0.44399
430	1	30.515	11.958	2.4978
431	1	21.659	11.89	3.9009
432	1	31.611	5.8725	7.1177
433	1	33.294	14.878	14.86
434	1	33.286	12.005	13.459
435	1	38.005	12.255	6.2932
436	1	40.603	6.4979	2.0653
437	1	47.668	15.782	13.601
438	1	40.393	8.5081	13.127
439	1	36.677	4.4339	3.6927
440	1	36.154	0.75981	3.0388
441	1	46.244	13.569	10.641
442	1	47.732	2.1593	6.0016
443	1	46.715	8.0987	9.8303
444	1	35.767	3.1623	0.36326
445	1	34.059	3.0053	8.2873
446	1	45.781	16.266	3.526
447	1	43.548	15.425	11.769
448	1	45.593	8.5941	4.2602
449	1	34.421	6.6718	8.8981
450	1	45.058	6.5696	4.9267
451	1	38.653	3.874	10.765
452	1	47.557	12.373	14.683
453	1	35.388	6.1511	10.922
454	1	43.202	6.1317	3.9309
455	1	36.457	4.6422	6.0423
456	1	38.698	7.2549	9.1315
457	1	43.669	5.1169	2.0368
458	1	44.792	13.686	12.491
459	1	43.547	10.23	11.294
460	1	43.026	9.6015	2.2513
461	1	34.846	6.6692	0.95957
462	1	35.556	2.3537	9.7839
463	1	36.258	9.7439	11.263
464	1	37.023	10.022	2.7039
465	1	46.677	10.023	0.98045
466	1	40.153	14.507	10.664
467	1	41.951	8.1682	11.294
468	1	43.197	11.633	9.2145
469	1	39.616	10.771	12.54
470	1	47.549	8.312	6.8477
471	1	39.555	10.802	10.054
472	1	42.14	10.143	0.1654
473	1	36.852	13.298	13.347
474	1	41.703	0.50437	16.014
475	1	48.247	8.3215	0.61305
476	1	46.045	3.2294	14.469
477	1	45.062	2.824	7.5258
478	1	41.946	7.9296	3.3056
479	1	38.276	3.2377	14.154
480	1	40.985	15.317	6.4281
481	1	46.691	15.808	1.3936
482	1	46.105	10.575	15.114
483	1	39.118	2.6032	1.7976
484	1	35.785	0.94588	5.4988
485	1	42.632	2.7112	7.7296
486	1	48.539	5.4545	5.0195
487	1	46.886	6.2698	0.52562
488	1	43.721	13.481	0.57045
489	1	32.656	1.3579	7.8132
490	1	34.993	3.0921	6.2264
491	1	39.396	4.9463	8.8879
492	1	45.11	15.208	16.009
493	1	45.471	13.807	6.5652
494	1	46.911	4.5322	2.0285
495	1	47.959	13.86	1.8074
496	1	39.075	0.14292	5.5456
497	1	41.754	4.5779	0.97429
498	1	44.611	13.619	8.8115
499	1	45.888	0.66653	8.6094
500	1	42.425	1.5947	3.7513
501	1	34.571	10.729	15.038
502	1	36.989	8.0892	3.7405
503	1	42.371	6.2973	7.2698
504	1	37.515	0.06294	15.758
505	1	32.737	13.74	7.9347
506	1	36.817	6.2162	14.41
507	1	43.884	1.1662	12.754
508	1	33.555	8.1594	2.0914
509	1	33.355	6.1344	12.328
510	1	33.447	2.4157	3.2371
511	1	44.423	14.567	4.4455
512	1	38.631	15.398	3.3506
513	1	33.908	15.111	11.343
514	1	43.845	0.81686	15.216
515	1	44.508	12.836	2.8377
516	1	40.511	8.6961	9.3901
517	1	33.833	9.6065	11.243
518	1	40.376	12.851	6.7676
519	1	40.115	12.157	3.0686
520	1	41.217	11.386	4.9001
521	1	34.47	11.902	0.62425
522	1	47.128	15.309	7.1343
523	1	45.917	9.7086	11.212
524	1	39.572	7.5726	0.41539
525	1	41.515	14.549	0.62222
526	1	34.73	10.059	6.2808
527	1	41.593	4.1764	12.878
528	1	35.042	8.0064	5.2386
529	1	33.949	11.339	4.4299
530	1	40.017	13.147	15.669
531	1	32.952	8.5028	9.4171
532	1	38.752	3.7669	3.7481
533	1	44.781	5.3302	11.737
534	1	46.197	14.25	14.21
535	1	43.752	9.8796	7.5584
536	1	41.735	1.7775	12.281
537	1	32.891	4.8746	14.203
538	1	40.707	14.44	2.8308
539	1	34.502	13.919	13.319
540	1	46.482	11.791	6.1853
541	1	37.166	10.993	9.5076
542	1	46.94	5.3608	14.72
543	1	45.903	4.9897	8.0829
544	1	41.467	8.1992	15.235
545	1	44.365	2.9327	15.8
546	1	47.576	1.5864	14.578
547	1	44.7	1.95	3.5665
548	1	41.737	5.2398	5.2555
549	1	36.458	13.311	9.5769
550	1	47.445	0.18554	5.1042
551	1	34.5	14.157	6.5242
552	1	47.65	8.8818	4.6913
553	1	38.541	6.885	12.934
554	1	36.634	9.7978	15.088
555	1	35.275	0.8181	11.499
556	1	45.804	2.9865	5.3919
557	1	47.877	11.202	4.4588
558	1	37.682	14.031	15.522
559	1	42.215	15.485	4.4068
560	1	37.796	14.342	11.336
561	1	32.724	2.7105	13.334
562	1	43.253	11.882	13.148
563	1	44.995	8.7938	1.9996
564	1	36.905	13.634	3.2532
565	1	33.061	11.655	11.261
566	1	32.863	9.7369	7.7005
567	1	40.685	0.39828	13.859
568	1	33.394	14.682	3.0882
569	1	47.896	15.439	11.221
570	1	47.642	2.8226	11.388
571	1	48.672	3.2452	1.4758
572	1	32.671	8.3496	12.936
573	1	39.44	4.6347	12.748
574	1	44.667	10.407	5.5681
575	1	37.489	0.29528	11.81
576	1	43.905	15.692	9.3622
577	1	46.552	4.9767	4.3011
578	1	35.453	7.7089	15.181
579	1	36.172	13.557	1.0675
580	1	33.047	5.0363	8.6754
581	1	37.44	1.7019	8.492
582	1	32.952	0.23302	4.1862
583	1	40.757	9.0183	5.2058
584	1	33.472	8.6905	14.988
585	1	33.065	7.4491	4.132
586	1	38.053	3.7976	0.08507
587	1	36.7	14.067	7.3595
588	1	42.633	4.5693	15.133
589	1	35.535	2.7273	2.609
590	1	43.269	11.275	3.9357
591	1	34.745	13.456	4.3995
592	1	37.736	8.0125	7.175
593	1	39.459	2.5269	5.5587
594	1	40.095	11.271	0.78038
595	1	38.723	1.5648	10.24
596	1	42.001	0.4261	8.3492
597	1	41.697	2.9599	5.5619
598	1	41.287	14.695	12.523
599	1	36.934	10.322	7.2982
600	1	41.31	2.2478	1.5396
601	1	38.825	7.748	5.1139
602	1	37.334	0	6.9146
603	1	35.488	1.2262	15.433
604	1	33.13	3.4893	5.0085
605	1	36.392	4.177	11.064
606	1	33.902	0.11146	0.01468
607	1	34.91	15.456	1.7345
608	1	44.684	6.8527	0.85143
609	1	47.214	11.566	10.359
610	1	40.708	0.59895	10.237
611	1	45.39	3.0234	12.3
612	1	40.999	12.601	13.469
613	1	35.802	6.7279	6.9307
614	1	38.273	9.709	0.6406
615	1	46.274	5.8653	10.18
616	1	42.587	5.6573	11.132
617	1	41.802	4.7645	8.9165
618	1	48.231	4.9701	10.704
619	1	36.687	6.3031	2.2072
620	1	37.217	7.5498	11.068
621	1	45.549	8.4581	7.9526
622	1	38.497	0.94604	13.907
623	1	38.053	0.61741	1.845
624	1	43.821	11.453	15.348
625	1	39.762	5.7896	4.1087
626	1	37.302	10.872	13.143
627	1	34.667	10.348	2.3792
628	1	47.869	11.618	8.0313
629	1	41.764	8.5303	7.3553
630	1	32.58	13.137	0
631	1	38.268	3.607	7.2503
632	1	34.067	13.482	9.9469
633	1	45.356	6.7442	13.609
634	1	44.624	6.4963	7.1599
635	1	40.868	12.531	9.1506
636	1	47.662	1.0278	9.8222
637	1	38.002	5.9791	0.2169
638	1	44.993	3.3661	1.73
639	1	46.54	8.8573	13.283
640	1	36.261	4.012	13.403
641	1	33.962	4.6013	0.09666
642	1	43.488	6.7832	15.127
643	1	34.889	2.1405	13.431
644	1	33.952	0.01762	6.238
645	1	48.191	1.2121	0.44399
646	1	46.805	11.958	2.4978
647	1	37.949	11.89	3.9009
648	1	47.901	5.8725	7.1177
649	1	49.584	14.878	14.86
650	1	49.576	12.005	13.459
651	1	54.294	12.255	6.2932
652	1	56.893	6.4979	2.0653
653	1	63.958	15.782	13.601
654	1	56.683	8.5081	13.127
655	1	52.967	4.4339	3.6927
656	1	52.444	0.75981	3.0388
657	1	62.534	13.569	10.641
658	1	64.022	2.1593	6.0016
659	1	63.005	8.0987	9.8303
660	1	52.057	3.1623	0.36326
661	1	50.349	3.0053	8.2873
662	1	62.071	16.266	3.526
663	1	59.838	15.425	11.769
664	1	61.883	8.5941	4.2602
665	1	50.711	6.6718	8.8981
666	1	61.348	6.5696	4.9267
667	1	54.943	3.874	10.765
668	1	63.847	12.373	14.683
669	1	51.678	6.1511	10.922
670	1	59.492	6.1317	3.9309
671	1	52.747	4.6422	6.0423
672	1	54.988	7.2549	9.1315
673	1	59.959	5.1169	2.0368
674	1	61.082	13.686	12.491
675	1	59.837	10.23	11.294
676	1	59.316	9.6015	2.2513
677	1	51.136	6.6692	0.95957
678	1	51.846	2.3537	9.7839
679	1	52.548	9.7439	11.263
680	1	53.313	10.022	2.7039
681	1	62.967	10.023	0.98045
682	1	56.443	14.507	10.664
683	1	58.241	8.1682	11.294
684	1	59.487	11.633	9.2145
685	1	55.906	10.771	12.54
686	1	63.839	8.312	6.8477
687	1	55.845	10.802	10.054
688	1	58.43	10.143	0.1654
689	1	53.142	13.298	13.347
690	1	57.993	0.50437	16.014
691	1	64.537	8.3215	0.61305
692	1	62.335	3.2294	14.469
693	1	61.352	2.824	7.5258
694	1	58.236	7.9296	3.3056
695	1	54.566	3.2377	14.154
696	1	57.275	15.317	6.4281
697	1	62.981	15.808	1.3936
698	1	62.395	10.575	15.114
699	1	55.408	2.6032	1.7976
700	1	52.075	0.94588	5.4988
701	1	58.922	2.7112	7.7296
702	1	64.829	5.4545	5.0195
703	1	63.176	6.2698	0.52562
704	1	60.011	13.481	0.57045
705	1	48.946	1.3579	7.8132
706	1	51.283	3.0921	6.2264
707	1	55.686	4.9463	8.8879
708	1	61.4	15.208	16.009
709	1	61.761	13.807	6.5652
710	1	63.201	4.5322	2.0285
711	1	64.249	13.86	1.8074
712	1	55.364	0.14292	5.5456
713	1	58.044	4.5779	0.97429
714	1	60.901	13.619	8.8115
715	1	62.178	0.66653	8.6094
716	1	58.715	1.5947	3.7513
717	1	50.861	10.729	15.038
718	1	53.279	8.0892	3.7405
719	1	58.661	6.2973	7.2698
720	1	53.805	0.06294	15.758
721	1	49.027	13.74	7.9347
722	1	53.107	6.2162	14.41
723	1	60.174	1.1662	12.754
724	1	49.845	8.1594	2.0914
725	1	49.645	6.1344	12.328
726	1	49.737	2.4157	3.2371
727	1	60.713	14.567	4.4455
728	1	54.921	15.398	3.3506
729	1	50.198	15.111	11.343
730	1	60.135	0.81686	15.216
731	1	60.798	12.836	2.8377
732	1	56.801	8.6961	9.3901
733	1	50.123	9.6065	11.243
734	1	56.666	12.851	6.7676
735	1	56.405	12.157	3.0686
736	1	57.507	11.386	4.9001
737	1	50.76	11.902	0.62425
738	1	63.418	15.309	7.1343
739	1	62.207	9.7086	11.212
740	1	55.861	7.5726	0.41539
741	1	57.805	14.549	0.62222
742	1	51.02	10.059	6.2808
743	1	57.883	4.1764	12.878
744	1	51.333	8.0064	5.2386
745	1	50.239	11.339	4.4299
746	1	56.306	13.147	15.669
747	1	49.242	8.5028	9.4171
748	1	55.042	3.7669	3.7481
749	1	61.071	5.3302	11.737
750	1	62.487	14.25	14.21
751	1	60.042	9.8796	7.5584
752	1	58.025	1.7775	12.281
753	1	49.181	4.8746	14.203
754	1	56.997	14.44	2.8308
755	1	50.792	13.919	13.319
756	1	62.772	11.791	6.1853
757	1	53.456	10.993	9.5076
758	1	63.23	5.3608	14.72
759	1	62.193	4.9897	8.0829
760	1	57.757	8.1992	15.235
761	1	60.655	2.9327	15.8
762	1	63.866	1.5864	14.578
763	1	60.99	1.95	3.5665
764	1	58.027	5.2398	5.2555
765	1	52.748	13.311	9.5769
766	1	63.735	0.18554	5.1042
767	1	50.79	14.157	6.5242
768	1	63.94	8.8818	4.6913
769	1	54.831	6.885	12.934
770	1	52.924	9.7978	15.088
771	1	51.565	0.8181	11.499
772	1	62.094	2.9865	5.3919
773	1	64.167	11.202	4.4588
774	1	53.972	14.031	15.522
775	1	58.505	15.485	4.4068
776	1	54.086	14.342	11.336
777	1	49.014	2.7105	13.334
778	1	59.543	11.882	13.148
779	1	61.285	8.7938	1.9996
780	1	53.195	13.634	3.2532
781	1	49.351	11.655	11.261
782	1	49.153	9.7369	7.7005
783	1	56.975	0.39828	13.859
784	1	49.684	14.682	3.0882
785	1	64.186	15.439	11.221
786	1	63.932	2.8226	11.388
787	1	64.962	3.2452	1.4758
788	1	48.961	8.3496	12.936
789	1	55.73	4.6347	12.748
790	1	60.957	10.407	5.5681
791	1	53.779	0.29528	11.81
792	1	60.195	15.692	9.3622
793	1	62.842	4.9767	4.3011
794	1	51.743	7.7089	15.181
795	1	52.462	13.557	1.0675
796	1	49.337	5.0363	8.6754
797	1	53.73	1.7019	8.492
798	1	49.242	0.23302	4.1862
799	1	57.047	9.0183	5.2058
800	1	49.762	8.6905	14.988
801	1	49.355	7.4491	4.132
802	1	54.343	3.7976	0.08507
803	1	52.99	14.067	7.3595
804	1	58.923	4.5693	15.133
805	1	51.825	2.7273	2.609
806	1	59.559	11.275	3.9357
807	1	51.035	13.456	4.3995
808	1	54.026	8.0125	7.175
809	1	55.749	2.5269	5.5587
810	1	56.385	11.271	0.78038
811	1	55.013	1.5648	10.24
812	1	58.291	0.4261	8.3492
813	1	57.987	2.9599	5.5619
814	1	57.577	14.695	12.523
815	1	53.224	10.322	7.2982
816	1	57.6	2.2478	1.5396
817	1	55.115	7.748	5.1139
818	1	53.623	0	6.9146
819	1	51.778	1.2262	15.433
820	1	49.42	3.4893	5.0085
821	1	52.682	4.177	11.064
822	1	50.192	0.11146	0.01468
823	1	51.2	15.456	1.7345
824	1	60.974	6.8527	0.85143
825	1	63.504	11.566	10.359
826	1	56.998	0.59895	10.237
827	1	61.68	3.0234	12.3
828	1	57.289	12.601	13.469
829	1	52.092	6.7279	6.9307
830	1	54.563	9.709	0.6406
831	1	62.564	5.8653	10.18
832	1	58.877	5.6573	11.132
833	1	58.092	4.7645	8.9165
834	1	64.521	4.9701	10.704
835	1	52.977	6.3031	2.2072
836	1	53.507	7.5498	11.068
837	1	61.839	8.4581	7.9526
838	1	54.787	0.94604	13.907
839	1	54.343	0.61741	1.845
840	1	60.111	11.453	15.348
841	1	56.052	5.7896	4.1087
842	1	53.592	10.872	13.143
843	1	50.957	10.348	2.3792
844	1	64.159	11.618	8.0313
845	1	58.053	8.5303	7.3553
846	1	48.87	13.137	0
847	1	54.558	3.607	7.2503
848	1	50.357	13.482	9.9469
849	1	61.646	6.7442	13.609
850	1	60.914	6.4963	7.1599
851	1	57.158	12.531	9.1506
852	1	63.952	1.0278	9.8222
853	1	54.291	5.9791	0.2169
854	1	61.283	3.3661	1.73
855	1	62.83	8.8573	13.283
856	1	52.551	4.012	13.403
857	1	50.252	4.6013	0.09666
858	1	59.778	6.7832	15.127
859	1	51.179	2.1405	13.431
860	1	50.242	0.01762	6.238
861	1	64.481	1.2121	0.44399
862	1	63.095	11.958	2.4978
863	1	54.239	11.89	3.9009
864	1	64.191	5.8725	7.1177
865	1	65.874	14.878	14.86
866	1	65.866	12.005	13.459
867	1	70.585	12.255	6.2932
868	1	73.183	6.4979	2.0653
869	1	80.248	15.782	13.601
870	1	72.973	8.5081	13.127
871	1	69.257	4.4339	3.6927
872	1	68.734	0.75981	3.0388
873	1	78.824	13.569	10.641
874	1	80.312	2.1593	6.0016
875	1	79.295	8.0987	9.8303
876	1	68.347	3.1623	0.36326
877	1	66.639	3.0053	8.2873
878	1	78.361	16.266	3.526
879	1	76.128	15.425	11.769
880	1	78.173	8.5941	4.2602
881	1	67.001	6.6718	8.8981
882	1	77.638	6.5696	4.9267
883	1	71.233	3.874	10.765
884	1	80.137	12.373	14.683
885	1	67.968	6.1511	10.922
886	1	75.782	6.1317	3.9309
887	1	69.037	4.6422	6.0423
888	1	71.278	7.2549	9.1315
889	1	76.249	5.1169	2.0368
890	1	77.372	13.686	12.491
891	1	76.127	10.23	11.294
892	1	75.606	9.6015	2.2513
893	1	67.426	6.6692	0.95957
894	1	68.136	2.3537	9.7839
895	1	68.838	9.7439	11.263
896	1	69.603	10.022	2.7039
897	1	79.257	10.023	0.98045
898	1	72.733	14.507	10.664
899	1	74.531	8.1682	11.294
900	1	75.777	11.633	9.2145
901	1	72.196	10.771	12.54
902	1	80.129	8.312	6.8477
903	1	72.135	10.802	10.054
904	1	74.72	10.143	0.1654
905	1	69.433	13.298	13.347
906	1	74.283	0.50437	16.014
907	1	80.827	8.3215	0.61305
908	1	78.625	3.2294	14.469
909	1	77.642	2.824	7.5258
910	1	74.526	7.9296	3.3056
911	1	70.856	3.2377	14.154
912	1	73.565	15.317	6.4281
913	1	79.271	15.808	1.3936
914	1	78.685	10.575	15.114
915	1	71.698	2.6032	1.7976
916	1	68.365	0.94588	5.4988
917	1	75.212	2.7112	7.7296
918	1	81.119	5.4545	5.0195
919	1	79.466	6.2698	0.52562
920	1	76.301	13.481	0.57045
921	1	65.236	1.3579	7.8132
922	1	67.573	3.0921	6.2264
923	1	71.976	4.9463	8.8879
924	1	77.69	15.208	16.009
925	1	78.051	13.807	6.5652
926	1	79.491	4.5322	2.0285
927	1	80.539	13.86	1.8074
928	1	71.654	0.14292	5.5456
929	1	74.334	4.5779	0.97429
930	1	77.191	13.619	8.8115
931	1	78.468	0.66653	8.6094
932	1	75.005	1.5947	3.7513
933	1	67.151	10.729	15.038
934	1	69.569	8.0892	3.7405
935	1	74.951	6.2973	7.2698
936	1	70.095	0.06294	15.758
937	1	65.317	13.74	7.9347
938	1	69.397	6.2162	14.41
939	1	76.464	1.1662	12.754
940	1	66.135	8.1594	2.0914
941	1	65.935	6.1344	12.328
942	1	66.027	2.4157	3.2371
943	1	77.003	14.567	4.4455
944	1	71.211	15.398	3.3506
945	1	66.488	15.111	11.343
946	1	76.425	0.81686	15.216
947	1	77.088	12.836	2.8377
948	1	73.091	8.6961	9.3901
949	1	66.413	9.6065	11.243
950	1	72.956	12.851	6.7676
951	1	72.695	12.157	3.0686
952	1	73.797	11.386	4.9001
953	1	67.05	11.902	0.62425
954	1	79.708	15.309	7.1343
955	1	78.497	9.7086	11.212
956	1	72.151	7.5726	0.41539
957	1	74.095	14.549	0.62222
958	1	67.31	10.059	6.2808
959	1	74.173	4.1764	12.878
960	1	67.623	8.0064	5.2386
961	1	66.529	11.339	4.4299
962	1	72.597	13.147	15.669
963	1	65.532	8.5028	9.4171
964	1	71.332	3.7669	3.7481
965	1	77.361	5.3302	11.737
966	1	78.777	14.25	14.21
967	1	76.332	9.8796	7.5584
968	1	74.315	1.7775	12.281
969	1	65.471	4.8746	14.203
970	1	73.287	14.44	2.8308
971	1	67.082	13.919	13.319
972	1	79.062	11.791	6.1853
973	1	69.746	10.993	9.5076
974	1	79.52	5.3608	14.72
975	1	78.483	4.9897	8.0829
976	1	74.047	8.1992	15.235
977	1	76.945	2.9327	15.8
978	1	80.156	1.5864	14.578
979	1	77.28	1.95	3.5665
980	1	74.317	5.2398	5.2555
981	1	69.038	13.311	9.5769
982	1	80.025	0.18554	5.1042
983	1	67.08	14.157	6.5242
984	1	80.23	8.8818	4.6913
985	1	71.121	6.885	12.934
986	1	69.214	9.7978	15.088
987	1	67.855	0.8181	11.499
988	1	78.384	2.9865	5.3919
989	1	80.457	11.202	4.4588
990	1	70.262	14.031	15.522
991	1	74.795	15.485	4.4068
992	1	70.376	14.342	11.336
993	1	65.304	2.7105	13.334
994	1	75.833	11.882	13.148
995	1	77.575	8.7938	1.9996
996	1	69.485	13.634	3.2532
997	1	65.641	11.655	11.261
998	1	65.443	9.7369	7.7005
999	1	73.265	0.39828	13.859
1000	1	65.974	14.682	3.0882
1001	1	80.476	15.439	11.221
1002	1	80.222	2.8226	11.388
1003	1	81.252	3.2452	1.4758
1004	1	65.251	8.3496	12.936
1005	1	72.02	4.6347	12.748
1006	1	77.247	10.407	5.5681
1007	1	70.069	0.29528	11.81
1008	1	76.485	15.692	9.3622
1009	1	79.132	4.9767	4.3011
1010	1	68.033	7.7089	15.181
1011	1	68.752	13.557	1.0675
1012	1	65.627	5.0363	8.6754
1013	1	70.02	1.7019	8.492
1014	1	65.532	0.23302	4.1862
1015	1	73.337	9.0183	5.2058
1016	1	66.052	8.6905	14.988
1017	1	65.645	7.4491	4.132
1018	1	70.633	3.7976	0.08507
1019	1	69.28	14.067	7.3595
1020	1	75.213	4.5693	15.133
1021	1	68.115	2.7273	2.609
1022	1	75.849	11.275	3.9357
1023	1	67.325	13.456	4.3995
1024	1	70.316	8.0125	7.175
1025	1	72.039	2.5269	5.5587
1026	1	72.675	11.271	0.78038
1027	1	71.303	1.5648	10.24
1028	1	74.581	0.4261	8.3492
1029	1	74.277	2.9599	5.5619
1030	1	73.867	14.695	12.523
1031	1	69.514	10.322	7.2982
1032	1	73.89	2.2478	1.5396
1033	1	71.405	7.748	5.1139
1034	1	69.913	0	6.9146
1035	1	68.068	1.2262	15.433
1036	1	65.71	3.4893	5.0085
1037	1	68.972	4.177	11.064
1038	1	66.482	0.11146	0.01468
1039	1	67.49	15.456	1.7345
1040	1	77.264	6.8527	0.85143
1041	1	79.794	11.566	10.359
1042	1	73.287	0.59895	10.237
1043	1	77.97	3.0234	12.3
1044	1	73.579	12.601	13.469
1045	1	68.382	6.7279	6.9307
1046	1	70.853	9.709	0.6406
1047	1	78.854	5.8653	10.18
1048	1	75.167	5.6573	11.132
1049	1	74.382	4.7645	8.9165
1050	1	80.811	4.9701	10.704
1051	1	69.267	6.3031	2.2072
1052	1	69.797	7.5498	11.068
1053	1	78.129	8.4581	7.9526
1054	1	71.077	0.94604	13.907
1055	1	70.633	0.61741	1.845
1056	1	76.401	11.453	15.348
1057	1	72.342	5.7896	4.1087
1058	1	69.882	10.872	13.143
1059	1	67.247	10.348	2.3792
1060	1	80.449	11.618	8.0313
1061	1	74.344	8.5303	7.3553
1062	1	65.16	13.137	0
1063	1	70.848	3.607	7.2503
1064	1	66.647	13.482	9.9469
1065	1	77.936	6.7442	13.609
1066	1	77.204	6.4963	7.1599
1067	1	73.448	12.531	9.1506
1068	1	80.242	1.0278	9.8222
1069	1	70.582	5.9791	0.2169
1070	1	77.573	3.3661	1.73
1071	1	79.12	8.8573	13.283
1072	1	68.841	4.012	13.403
1073	1	66.542	4.6013	0.09666
1074	1	76.068	6.7832	15.127
1075	1	67.469	2.1405	13.431
1076	1	66.532	0.01762	6.238
1077	1	80.771	1.2121	0.44399
1078	1	79.385	11.958	2.4978
1079	1	70.528	11.89	3.9009
1080	1	80.481	5.8725	7.1177
1081	1	82.164	14.878	14.86
1082	1	82.156	12.005	13.459
1083	1	86.874	12.255	6.2932
1084	1	89.473	6.4979	2.0653
1085	1	96.538	15.782	13.601
1086	1	89.263	8.5081	13.127
1087	1	85.547	4.4339	3.6927
1088	1	85.024	0.75981	3.0388
1089	1	95.114	13.569	10.641
1090	1	96.602	2.1593	6.0016
1091	1	95.585	8.0987	9.8303
1092	1	84.637	3.1623	0.36326
1093	1	82.929	3.0053	8.2873
1094	1	94.651	16.266	3.526
1095	1	92.418	15.425	11.769
1096	1	94.463	8.5941	4.2602
1097	1	83.291	6.6718	8.8981
1098	1	93.928	6.5696	4.9267
1099	1	87.523	3.874	10.765
1100	1	96.427	12.373	14.683
1101	1	84.258	6.1511	10.922
1102	1	92.072	6.1317	3.9309
1103	1	85.327	4.6422	6.0423
1104	1	87.568	7.2549	9.1315
1105	1	92.539	5.1169	2.0368
1106	1	93.662	13.686	12.491
1107	1	92.417	10.23	11.294
1108	1	91.896	9.6015	2.2513
1109	1	83.716	6.6692	0.95957
1110	1	84.426	2.3537	9.7839
1111	1	85.128	9.7439	11.263
1112	1	85.893	10.022	2.7039