216
Atoms. Timestep: 8005
1 0.260236 13.6582 14.407
1 0.612417 11.1929 13.7014
1 5.92959 12.576 7.20172
1 6.36497 6.69288 2.71474
1 15.3375 15.7874 14.0214
1 6.41701 7.9337 12.9042
1 5.36938 2.93179 4.13682
1 4.74444 16.0938 3.72617
1 13.8161 14.949 10.7042
1 14.9814 3.77478 5.49844
1 14.3668 8.60968 10.6227
1 2.45247 2.79385 16.0632
1 0.550756 3.78757 7.50512
1 12.8819 15.4224 2.8415
1 10.4996 16.1475 11.7613
1 10.6307 8.65145 4.94261
1 2.58098 6.3756 9.802
1 12.7808 7.16865 5.75021
1 6.03903 3.77277 11.069
1 14.8983 12.9293 12.6066
1 2.51365 7.12615 12.2332
1 10.1425 5.58827 4.02621
1 5.08352 5.14768 6.86133
1 6.16551 7.53196 9.56638
1 8.1659 4.86506 1.74337
1 12.0672 13.4679 11.6693
1 10.868 8.48872 10.2816
1 9.9449 9.67201 1.64903
1 15.4292 5.5011 0.738335
1 2.99682 3.88676 8.79896
1 1.0711 10.5395 11.448
1 5.70511 9.16865 3.10157
1 13.4788 9.47705 0.809916
1 7.95257 14.1069 11.0972
1 8.69823 6.83186 11.8385
1 11.514 14.0447 9.0383
1 6.13978 10.4239 13.4685
1 0.950823 9.17469 7.69181
1 7.35223 10.5328 11.4728
1 11.3516 9.93618 16.179
1 4.52823 12.6793 12.6719
1 9.07409 14.8142 15.5644
1 15.325 8.03573 16.2349
1 13.1941 1.9117 14.8317
1 11.7901 4.02327 7.49748
1 10.6682 7.59845 2.8758
1 4.74317 3.09423 15.2944
1 8.75101 15.3839 6.58974
1 14.0647 14.6989 1.05097
1 13.6658 10.6797 12.4096
1 5.31363 4.45151 1.18806
1 4.10826 1.53254 5.64747
1 9.67556 3.00183 8.2919
1 0.993524 7.28437 5.65308
1 12.5949 5.36143 0.572028
1 11.7053 12.1791 16.0712
1 0.151865 0.18971 9.12391
1 3.08595 3.63121 6.22079
1 7.34206 5.35569 9.73381
1 13.0414 15.9089 15.2487
1 13.0018 15.591 5.92854
1 14.359 5.31417 2.86968
1 0.264926 14.7611 1.16661
1 6.86286 16.2771 5.42445
1 7.49069 6.13257 16.0256
1 11.4935 16.2453 8.02138
1 13.1689 2.01883 7.60921
1 9.10434 1.28174 2.98677
1 2.04218 10.2895 15.8826
1 8.1339 8.56063 4.12113
1 9.65995 6.14864 8.51276
1 5.53993 15.5511 0.321309
1 15.0816 14.3897 8.83141
1 1.17934 5.59227 13.6872
1 10.2487 1.88233 13.1278
1 1.70042 8.78331 3.25097
1 15.1294 5.88345 12.8314
1 1.73135 1.18941 4.51717
1 12.4346 13.3 4.12008
1 7.59524 14.958 3.09136
1 2.38605 14.778 10.4582
1 10.6104 0.343764 15.2554
1 13.7438 12.5224 1.03255
1 8.56584 8.59278 10.1534
1 0.218957 8.27257 12.2427
1 8.58989 12.9539 6.79183
1 8.1596 10.8168 2.7271
1 10.4006 11.371 5.26211
1 2.78404 13.2453 1.66735
1 14.7599 1.35166 5.56106
1 13.8972 11.8175 9.69166
1 5.45483 7.58291 0.625631
1 9.61628 12.8133 0.273888
1 3.61075 11.0136 5.15255
1 7.93476 3.28495 13.03
1 3.14123 8.48253 6.9686
1 0.274755 12.0346 5.2219
1 7.82596 11.9033 14.8266
1 0.358834 7.88735 9.70673
1 5.56989 1.85578 2.22311
1 11.6269 5.24851 14.2635
1 12.8938 13.6177 14.2025
1 11.0154 10.3594 7.57782
1 7.13697 1.01913 13.2345
1 0.189557 3.2828 15.2443
1 9.33523 13.082 2.86189
1 2.55676 14.1816 13.0427
1 13.81 11.6546 5.6557
1 5.3712 11.2769 10.3278
1 14.2091 4.6308 14.7958
1 12.3459 6.17285 8.21215
1 7.8554 8.40461 14.9224
1 9.89342 2.46326 0.167757
1 16.1535 0.816389 16.1375
1 11.7199 0.635625 1.38963
1 9.057 5.82846 6.15673
1 4.85808 13.4355 9.01422
1 14.8395 0.299001 3.49443
1 1.30598 15.1016 6.25293
1 14.6842 7.88298 4.50155
1 5.3744 5.74698 13.0832
1 3.89478 9.6862 14.608
1 2.20834 1.44319 10.0264
1 10.8614 3.19451 2.65271
1 15.9014 10.1311 3.84559
1 6.27847 13.5173 14.2392
1 10.4291 14.6525 4.72674
1 5.64945 14.3308 11.0598
1 15.8207 2.05666 13.3114
1 11.3609 11.0432 10.6398
1 12.8426 7.61958 2.1934
1 6.18611 12.7907 2.52268
1 0.311801 12.808 10.2344
1 1.78292 11.4529 6.86554
1 7.74795 14.9741 13.5114
1 2.01467 13.3558 4.23058
1 16.2828 15.6077 11.726
1 14.367 2.69973 11.5793
1 0.244734 3.61504 3.43353
1 15.1512 9.61322 14.1019
1 6.47999 4.43564 14.7038
1 12.8353 9.86844 4.063
1 3.9937 -0.00311366 11.3494
1 12.6217 0.808885 10.4658
1 12.6492 4.72082 5.42375
1 2.1131 6.80901 15.7302
1 4.86415 12.5986 0.372029
1 0.0112027 5.73491 8.98596
1 4.74099 1.76332 8.80997
1 0.794908 15.321 3.41503
1 8.11003 10.6451 5.89175
1 0.9727 8.90104 1.00064
1 3.79332 8.20649 4.47827
1 3.13962 5.91865 1.38183
1 3.62299 14.4723 6.97712
1 9.58448 4.29166 14.9305
1 3.01376 2.14237 2.51693
1 11.4641 11.5828 2.55351
1 4.46925 13.7248 4.80607
1 7.08168 8.60415 7.21528
1 7.51088 2.06917 4.6547
1 7.60504 10.1293 0.404896
1 6.18665 1.22804 10.6603
1 9.17193 0.434812 8.46385
1 8.1217 3.53962 6.64303
1 10.257 13.7423 12.9141
1 4.94536 10.1651 7.62161
1 7.51544 2.52533 0.935291
1 6.92433 6.65405 5.63342
1 5.15269 16.2173 7.27392
1 3.04454 0.431694 13.7415
1 1.62056 5.02185 5.07962
1 3.73517 4.60817 11.4391
1 2.16171 0.327592 16.0076
1 3.35621 15.8141 1.73292
1 10.1496 6.4573 0.710729
1 12.7276 12.5862 7.82261
1 8.22801 0.060384 10.515
1 12.1767 3.27146 12.8158
1 9.3256 11.5813 12.7075
1 4.31461 6.86562 8.39105
1 4.85939 10.0962 0.831933
1 12.49 6.15236 10.3777
1 10.7761 5.26399 11.7466
1 8.959 3.89212 10.6161
1 15.128 4.82018 10.6048
1 3.25358 6.05212 3.68944
1 4.72689 8.55591 11.3202
1 14.8669 9.29202 6.79
1 5.00208 0.789681 15.0142
1 7.98585 16.1742 1.06204
1 11.4404 10.4697 13.5398
1 5.37293 5.18325 4.2236
1 3.45408 10.6585 12.0432
1 3.087 10.8341 2.61787
1 14.7194 14.2274 6.42279
1 9.41377 8.69573 7.56638
1 0.937314 12.4155 0.406049
1 6.26223 3.89209 8.15892
1 1.69216 13.3744 8.09176
1 13.5703 7.57076 13.8925
1 13.0777 8.90148 8.69937
1 9.46808 12.8628 9.15012
1 14.9784 1.98407 9.2644
1 4.08621 7.58042 14.7407
1 12.6535 2.8359 0.912859
1 11.1936 7.79643 13.2027
1 2.55524 3.92386 13.4608
1 1.29556 4.52857 1.60634
1 10.0942 8.008 15.206
1 1.62067 1.82875 12.3034
1 0.364628 1.00558 6.67623
1 14.9353 2.25864 2.01226
1 15.7015 10.8664 1.57862
1 5.78156 11.1263 4.65941
1 15.2767 6.39647 7.0224
