216
Atoms. Timestep: 8010
1 0.304835 13.6056 14.4001
1 0.666241 11.1524 13.7166
1 5.93692 12.5155 7.13626
1 6.38048 6.64591 2.72897
1 15.3307 15.7966 14.0508
1 6.46203 7.96955 12.8883
1 5.40631 2.95507 4.04647
1 4.73479 16.0703 3.69119
1 13.8468 14.9959 10.7179
1 14.9164 3.82517 5.50328
1 14.313 8.59436 10.6302
1 2.41531 2.779 16.0769
1 0.543189 3.82318 7.5118
1 12.9022 15.415 2.82703
1 10.4599 16.1297 11.7735
1 10.6044 8.72264 4.90602
1 2.6183 6.36343 9.78757
1 12.779 7.13364 5.79983
1 6.02501 3.74093 11.0344
1 14.9175 12.8841 12.5893
1 2.44157 7.1205 12.2433
1 10.1998 5.59305 3.97267
1 5.08701 5.11062 6.87705
1 6.20166 7.48841 9.48417
1 8.15344 4.83558 1.69692
1 12.1168 13.45 11.6351
1 10.7917 8.47698 10.2606
1 9.97276 9.66748 1.63689
1 15.4496 5.45027 0.713112
1 3.01207 3.85432 8.80516
1 1.09836 10.5115 11.3909
1 5.70186 9.18284 3.13097
1 13.5038 9.48078 0.831065
1 7.97144 14.0504 11.1023
1 8.67354 6.82323 11.8103
1 11.536 13.9892 9.03549
1 6.11577 10.4619 13.4753
1 0.921837 9.19264 7.69246
1 7.34139 10.5153 11.4575
1 11.3833 9.94937 16.1526
1 4.55118 12.6872 12.7328
1 9.06878 14.8023 15.546
1 15.3856 8.04735 16.237
1 13.1717 1.91497 14.8605
1 11.8449 4.00513 7.53661
1 10.761 7.65172 2.83439
1 4.68177 3.13082 15.2758
1 8.71666 15.3571 6.58903
1 14.0716 14.7329 1.13363
1 13.6558 10.6251 12.3788
1 5.34984 4.43448 1.23915
1 4.10875 1.52127 5.68884
1 9.70448 3.05742 8.30182
1 0.968895 7.33723 5.74598
1 12.5985 5.39245 0.598293
1 11.696 12.1291 16.0797
1 0.159305 0.127278 9.11879
1 3.0799 3.61729 6.25242
1 7.37685 5.37993 9.7833
1 13.0093 15.8817 15.1886
1 13.0003 15.6843 5.88507
1 14.4382 5.28695 2.85199
1 0.251764 14.7931 1.18273
1 6.9061 16.2875 5.4419
1 7.43269 6.13374 16.0919
1 11.5454 16.3042 8.00841
1 13.1633 1.98342 7.59962
1 9.12217 1.24965 3.03928
1 2.00943 10.2983 15.853
1 8.1473 8.57479 4.13332
1 9.72112 6.16294 8.47697
1 5.56163 15.5269 0.324946
1 15.0922 14.4317 8.85385
1 1.16433 5.6246 13.6223
1 10.254 1.88273 13.1078
1 1.73448 8.73123 3.22951
1 15.075 5.89014 12.9212
1 1.76611 1.248 4.49608
1 12.4572 13.2645 4.03995
1 7.58508 14.9589 3.08897
1 2.3995 14.7034 10.4597
1 10.6504 0.304039 15.2991
1 13.7498 12.527 1.03951
1 8.60366 8.63364 10.2015
1 0.22194 8.28125 12.2266
1 8.58657 12.9764 6.80469
1 8.18804 10.8436 2.71978
1 10.4555 11.3764 5.27606
1 2.81783 13.2851 1.66576
1 14.7972 1.27707 5.59005
1 13.9146 11.9049 9.72383
1 5.42315 7.58278 0.675593
1 9.6392 12.8169 0.239098
1 3.63893 11.0338 5.1713
1 7.92324 3.29507 13.0711
1 3.14897 8.44862 7.0125
1 0.29764 12.076 5.12244
1 7.79509 11.8768 14.8489
1 0.322522 7.90097 9.73203
1 5.61059 1.83972 2.32608
1 11.6627 5.34789 14.2546
1 12.896 13.5721 14.2143
1 10.9606 10.3157 7.57083
1 7.10309 1.0121 13.241
1 0.209085 3.27048 15.2426
1 9.37103 13.1639 2.85611
1 2.48584 14.2211 13.0943
1 13.7399 11.6232 5.6716
1 5.368 11.2402 10.3489
1 14.1925 4.61391 14.7986
1 12.3263 6.20103 8.23355
1 7.88506 8.40858 14.9173
1 9.89263 2.42737 0.184724
1 16.1491 0.773192 16.1287
1 11.7117 0.646582 1.34044
1 9.06424 5.79401 6.11716
1 4.871 13.4764 8.95202
1 14.8375 0.234713 3.38531
1 1.27592 15.1071 6.28687
1 14.6346 7.85586 4.5138
1 5.31798 5.72219 13.1002
1 3.84878 9.68088 14.5382
1 2.22327 1.4701 10.0098
1 10.8567 3.23193 2.56069
1 15.8065 10.1216 3.82258
1 6.18611 13.5348 14.3062
1 10.3931 14.6602 4.78357
1 5.57304 14.3374 11.0528
1 15.7875 2.05177 13.3264
1 11.3152 11.0049 10.6335
1 12.8434 7.61894 2.1627
1 6.11962 12.8638 2.50928
1 0.276683 12.7759 10.235
1 1.82073 11.4376 6.83702
1 7.77022 14.9482 13.5316
1 2.01809 13.3346 4.12244
1 16.299 15.6451 11.7139
1 14.3898 2.72339 11.596
1 0.280672 3.59831 3.41424
1 15.1224 9.608 14.1908
1 6.41564 4.3767 14.7082
1 12.8906 9.93146 4.08871
1 3.96791 -0.0654214 11.3852
1 12.5951 0.773066 10.4522
1 12.7369 4.73027 5.39984
1 2.10004 6.83237 15.7371
1 4.89191 12.5941 0.351227
1 0.0240076 5.78893 9.06254
1 4.71636 1.79065 8.79163
1 0.887275 15.2704 3.40561
1 8.11962 10.6797 5.85818
1 0.983645 8.8806 0.966552
1 3.80252 8.19037 4.52024
1 3.13097 5.85137 1.368
1 3.60939 14.4132 6.99558
1 9.54064 4.30334 14.9068
1 2.98231 2.13066 2.56896
1 11.4418 11.5894 2.61043
1 4.42554 13.6777 4.84124
1 7.07329 8.64452 7.20292
1 7.53745 2.08585 4.66619
1 7.59963 10.1388 0.313149
1 6.14371 1.16334 10.6567
1 9.18369 0.430306 8.45926
1 8.10557 3.56368 6.67421
1 10.3394 13.6908 12.9443
1 4.9661 10.1829 7.62552
1 7.50083 2.54293 0.890194
1 6.8714 6.67547 5.67458
1 5.10787 16.2285 7.30553
1 3.05169 0.403388 13.7505
1 1.63301 4.99521 5.05424
1 3.66811 4.54321 11.5131
1 2.11718 0.368832 16.0274
1 3.38741 15.7872 1.74223
1 10.1385 6.43862 0.785021
1 12.6906 12.5543 7.73795
1 8.19177 0.0819564 10.5676
1 12.1778 3.27477 12.7475
1 9.3597 11.6261 12.7022
1 4.30096 6.85076 8.3982
1 4.89406 10.0633 0.835712
1 12.4526 6.24562 10.4168
1 10.7383 5.2334 11.7501
1 8.8856 3.9003 10.6018
1 15.1329 4.90239 10.5751
1 3.24467 6.14007 3.7285
1 4.73338 8.53286 11.3536
1 14.862 9.34492 6.80654
1 5.07138 0.832345 15.005
1 7.97071 16.1697 1.06091
1 11.4013 10.4595 13.5979
1 5.4335 5.17484 4.20855
1 3.39776 10.6577 12.0419
1 3.12522 10.8585 2.62025
1 14.7823 14.2342 6.43091
1 9.41245 8.68561 7.60307
1 0.940828 12.4291 0.36861
1 6.27418 3.97261 8.15826
1 1.71109 13.4225 8.08055
1 13.5979 7.58918 13.8617
1 13.0886 8.94737 8.71008
1 9.4847 12.8317 9.06311
1 15.0054 1.96707 9.26671
1 4.07305 7.56573 14.7694
1 12.5971 2.84982 0.862953
1 11.1549 7.69837 13.2192
1 2.53002 3.89927 13.4278
1 1.35621 4.47089 1.60743
1 10.0981 8.01794 15.172
1 1.59567 1.85195 12.2858
1 0.348891 1.0011 6.65077
1 14.9772 2.28897 2.02813
1 15.7138 10.9562 1.5915
1 5.77991 11.1493 4.67428
1 15.3157 6.48992 6.9765
