216
Atoms. Timestep: 3000
1 0.635149 14.9286 14.8904
1 0.668008 12.0501 13.4435
1 5.55281 12.1623 6.56314
1 8.07309 6.55649 1.89379
1 15.2091 15.7538 13.6974
1 7.76549 8.54988 13.0691
1 3.8045 4.514 3.64882
1 3.56438 0.602916 3.09462
1 13.4134 13.7061 10.5993
1 15.3691 2.33806 5.99873
1 14.4238 8.01686 10.2274
1 3.37441 3.32865 0.0809959
1 1.37921 2.87612 8.31599
1 12.9176 16.1975 3.47193
1 10.7299 15.3691 11.8147
1 13.2031 8.66947 4.01435
1 1.99235 6.72619 8.97293
1 12.6546 6.60747 4.82042
1 6.21239 3.82892 10.7182
1 14.928 12.3412 14.6789
1 2.84122 6.18952 11.0963
1 10.4223 6.2089 3.90576
1 4.03042 4.64111 5.9762
1 6.23175 7.11206 9.38595
1 10.796 5.09872 1.85057
1 12.0553 13.5167 12.4575
1 10.7537 10.4113 11.0226
1 10.4431 9.84829 2.15901
1 2.24857 6.61161 0.945641
1 3.06942 2.27021 9.7155
1 3.64859 9.62365 11.3739
1 4.44426 10.1812 2.56945
1 13.9778 10.311 0.954594
1 7.51048 14.5932 10.5695
1 9.41419 8.43486 11.3179
1 10.5676 11.8367 9.0283
1 7.09284 10.7563 12.5033
1 14.9526 8.296 6.88633
1 7.00749 11.004 10.1785
1 9.58055 10.1311 0.0103142
1 4.41274 13.3527 13.3146
1 9.02439 0.375793 16.2157
1 15.449 8.44832 0.459413
1 13.4474 3.20436 14.5204
1 12.489 2.62301 7.66199
1 9.1422 8.29006 3.29627
1 5.91771 3.18941 14.2775
1 8.44063 15.271 6.46507
1 14.0519 15.7936 1.34346
1 13.3901 10.5308 15.1736
1 6.61098 2.32611 1.76267
1 3.10252 1.03607 5.51676
1 10.182 2.73952 7.71997
1 16.1119 5.59991 4.99311
1 14.1547 6.4272 0.394962
1 11.0755 13.447 0.551888
1 -0.0119273 1.09831 8.00124
1 2.40264 3.14972 6.32387
1 6.93505 4.79704 8.73933
1 12.4086 15.3223 15.9759
1 13.063 13.7369 6.55643
1 14.2834 4.47944 1.90249
1 15.3348 13.8973 1.7911
1 6.54608 -0.0220369 5.44918
1 8.8785 4.4977 0.696143
1 11.9406 13.7134 8.58464
1 13.1713 0.41299 8.36336
1 9.82282 1.49876 3.81515
1 1.74493 10.7233 15.078
1 4.2641 8.15122 3.82802
1 9.75217 6.35028 7.24357
1 4.80661 16.1912 15.9853
1 0.142984 13.773 7.85895
1 4.31911 6.20472 14.5668
1 11.1328 0.97633 12.7605
1 0.973907 8.27933 1.84533
1 0.59727 6.19954 12.2843
1 0.788696 2.35575 2.98363
1 11.8205 14.4957 4.70737
1 6.29044 15.324 3.39227
1 1.1757 15.2311 11.5574
1 11.0627 0.622162 15.135
1 12.1108 13.1224 2.80489
1 7.90901 8.77109 9.52536
1 1.20252 9.62765 11.4872
1 7.7841 12.9086 6.83682
1 7.72301 12.2289 3.06513
1 8.62783 11.3858 5.17737
1 1.86791 12.0154 0.709874
1 14.7477 15.3513 7.00044
1 13.0966 9.907 11.1054
1 7.01935 8.00016 0.22144
1 9.01023 14.5113 0.551772
1 2.34788 10.0391 6.47386
1 9.07692 4.19213 12.9913
1 2.4978 8.07617 5.34495
1 1.38828 11.2184 4.49722
1 7.57117 13.0406 15.7313
1 0.313846 8.46129 9.64532
1 6.06305 3.72534 3.59531
1 12.1073 5.19944 11.9429
1 13.5059 14.2218 14.1844
1 11.0205 9.91508 7.69871
1 9.01217 1.73605 12.4344
1 0.0299079 4.85835 14.2041
1 8.37078 14.5282 2.87825
1 2.07261 13.9351 13.2914
1 13.9933 11.6647 6.24807
1 4.54378 10.9573 9.75555
1 14.2503 5.46514 14.6994
1 13.2956 4.89806 8.11179
1 8.96275 8.26894 15.1199
1 11.5421 2.85665 15.7563
1 15.0636 1.49362 14.766
1 12.0607 1.93464 3.46378
1 8.87864 5.28429 5.32676
1 3.72832 13.1775 9.66265
1 14.7796 0.163615 5.06564
1 1.98604 14.2864 6.42029
1 15.4539 8.93281 4.70197
1 6.00172 6.99038 13.0684
1 4.22069 10.0359 15.1149
1 2.73884 0.688274 11.3171
1 13.155 2.91338 5.44162
1 15.548 11.2565 4.37713
1 5.20522 13.8721 15.3887
1 9.6455 15.5752 4.48605
1 5.25768 14.3419 11.2337
1 0.0553155 2.71827 13.2304
1 10.639 11.9162 13.1482
1 12.4175 8.86988 1.76887
1 4.55882 13.5114 3.26014
1 0.321748 11.7804 11.1733
1 0.212094 9.69842 7.69961
1 8.07735 0.173448 13.9472
1 0.971822 14.499 2.8304
1 15.0086 15.3715 11.3953
1 14.9732 2.67609 11.4245
1 16.1079 3.32013 1.27733
1 16.0752 8.27079 12.8558
1 6.94556 4.72001 12.6993
1 12.0826 10.3377 5.55463
1 4.90505 0.194947 11.8843
1 11.2286 15.7036 9.30208
1 13.9678 4.81242 4.2474
1 2.91768 7.86735 15.397
1 3.76754 13.4913 0.950768
1 0.340302 4.92733 8.81658
1 4.89736 1.57862 8.48032
1 0.46247 0.0496799 4.00143
1 8.14404 9.07873 5.45135
1 0.641865 8.61956 14.9906
1 0.602329 7.45958 3.99339
1 5.76767 3.73497 0.0764046
1 4.1866 13.9903 7.32351
1 10.1173 4.62744 14.9346
1 2.89743 2.78123 2.37715
1 10.7664 11.4003 3.9174
1 2.40871 13.3412 4.39211
1 5.19867 7.94421 7.35731
1 6.96526 2.33326 5.42807
1 7.70347 11.3338 0.777583
1 6.2315 1.4894 10.4661
1 9.53752 0.365774 8.15862
1 9.29392 2.95874 5.55919
1 8.62254 14.5816 12.6501
1 4.46995 10.2012 7.54161
1 8.91984 2.07886 1.59605
1 6.11758 7.68362 5.2211
1 4.70899 16.2867 6.81908
1 3.00584 1.34949 15.2667
1 0.593392 3.5088 4.87388
1 3.96141 4.12797 11.0017
1 1.32398 0.143913 -0.0309884
1 2.54283 15.4217 1.55811
1 11.9374 6.85926 0.649472
1 14.5345 11.6429 10.3104
1 8.30065 0.438321 10.3809
1 12.787 2.89658 12.3835
1 8.40557 12.5892 13.5761
1 3.38415 6.62633 7.00106
1 5.80325 10.0834 0.619337
1 13.6593 5.73973 10.2311
1 9.78465 5.69374 11.2805
1 9.48823 4.77055 8.89385
1 15.6593 4.88477 10.8452
1 4.12258 6.39411 2.33007
1 4.68973 7.45023 11.0637
1 13.0032 8.33312 8.20455
1 5.90366 0.848352 14.0418
1 5.53153 0.397169 1.68394
1 11.1577 11.6147 15.5233
1 7.0917 5.85296 3.96362
1 4.79264 10.9037 12.966
1 2.1272 10.2896 2.37865
1 15.529 11.6997 8.0946
1 9.1297 8.56987 7.53859
1 16.2805 13.2254 16.2572
1 5.65186 3.45546 7.17938
1 1.39811 13.5205 9.85895
1 12.7589 7.07752 13.4925
1 12.1035 6.51735 7.04344
1 8.2962 12.7003 9.23635
1 14.8148 0.869926 9.96504
1 5.53327 6.09994 0.310387
1 12.3407 3.35912 1.53557
1 13.8224 9.13254 13.3241
1 3.84836 3.96434 13.4375
1 1.23026 4.60253 -0.0246552
1 10.8867 6.79512 14.9291
1 2.2093 2.15988 13.006
1 1.22099 16.4351 6.19806
1 15.626 1.18665 0.589013
1 14.2383 12.002 2.55222
1 5.70594 11.5825 4.08135
1 15.3336 5.85144 7.17974
