216
Atoms. Timestep: 5000
1 0.669263 15.1264 14.9441
1 0.659234 12.0051 13.4489
1 5.61651 12.2483 6.22133
1 7.33401 6.33154 1.94989
1 15.2541 15.9321 13.5245
1 8.00371 8.61678 13.0595
1 3.47234 4.75954 3.55422
1 3.83464 0.324979 3.15956
1 13.6141 13.7112 10.4635
1 15.694 2.32979 5.83774
1 14.7366 7.87007 10.286
1 3.47588 3.34528 0.211311
1 1.5664 3.11574 8.18524
1 13.5598 16.1548 3.42461
1 10.5922 15.6245 11.6447
1 12.9756 8.55804 4.50537
1 1.65502 6.45754 8.93458
1 12.1071 6.51694 5.27531
1 6.28574 3.64198 10.6762
1 14.9139 12.494 14.5237
1 2.83332 6.14448 11.0629
1 10.3177 6.51479 3.99017
1 4.21631 4.99129 5.96263
1 5.85598 7.31596 9.23497
1 10.8768 5.26224 2.1152
1 11.8778 13.8262 12.2405
1 10.5851 10.5334 11.2077
1 10.3061 9.49141 2.1583
1 2.69943 6.88726 0.831302
1 2.87383 2.47511 10.1043
1 3.68855 9.72216 11.6033
1 5.02756 9.68447 2.5527
1 14.0146 10.1284 1.03211
1 7.44806 14.4631 10.5814
1 9.32829 8.38734 11.1881
1 10.2262 11.8625 9.19824
1 7.11943 10.9893 12.7802
1 14.1962 7.83459 7.43343
1 6.97083 10.7765 10.2115
1 9.60614 10.4014 -0.0486188
1 4.39409 13.3339 13.2218
1 8.37177 0.142199 0.110058
1 15.6065 8.35852 0.704311
1 13.1333 3.50409 14.6975
1 12.4074 2.55761 7.35107
1 8.58201 7.90038 3.11262
1 5.78153 3.31685 14.3331
1 8.57081 15.4262 6.48266
1 14.2876 15.5999 1.2365
1 13.6488 10.6693 15.0174
1 6.78915 2.70939 1.58991
1 3.00035 0.520732 5.56927
1 10.1914 2.60087 7.64009
1 16.21 5.59895 4.70986
1 14.0961 6.3555 0.638853
1 11.2726 13.3427 0.360345
1 16.4281 1.4414 8.2213
1 2.70735 3.07404 6.18068
1 6.78141 5.13583 8.98558
1 12.6136 15.1383 16.0992
1 12.9549 13.883 6.45347
1 14.3401 4.39507 2.12344
1 15.6131 13.5175 1.60378
1 6.65264 0.0426049 5.4113
1 8.71025 4.74242 0.841354
1 11.8164 13.5616 8.57093
1 13.2757 0.475863 8.54859
1 9.93636 1.82598 3.8304
1 1.90777 9.82773 13.8563
1 4.4188 7.72707 3.74779
1 8.97789 6.50457 7.33595
1 5.18153 0.0574604 15.5389
1 0.596701 13.8579 8.03893
1 2.29329 5.97508 13.8496
1 11.0228 1.10909 13.0229
1 1.26211 8.40679 1.91261
1 0.344109 6.2161 11.7545
1 1.2278 1.75983 2.95948
1 12.0311 14.6439 4.31884
1 6.0997 15.4245 3.3095
1 1.35975 15.3264 11.7276
1 11.1078 0.628562 15.4534
1 11.8906 12.8097 2.62512
1 7.59979 8.69174 9.45078
1 1.24451 9.28943 11.1568
1 7.80965 13.0054 6.52301
1 8.27892 12.2238 2.81645
1 9.22614 11.3645 5.58225
1 2.70011 11.7734 0.392971
1 14.5304 15.4336 7.1972
1 12.9097 9.73741 10.5704
1 7.28184 7.70312 0.091459
1 9.10772 14.4847 0.561058
1 2.16301 10.509 6.44113
1 9.37886 4.47043 13.1396
1 2.44598 8.28627 5.11485
1 1.54444 11.0104 4.20081
1 7.43891 13.037 15.8163
1 0.347108 8.37777 9.15593
1 5.71948 3.43583 3.69786
1 12.0405 5.38877 11.5893
1 13.5266 14.3354 14.1241
1 10.4711 10.2192 7.43936
1 8.56589 2.14872 12.2016
1 -0.0207259 5.20703 14.2364
1 8.36014 14.5017 2.75187
1 2.06575 13.7979 13.4052
1 13.8493 11.9401 6.18322
1 4.70618 11.071 9.76415
1 14.0882 5.69582 14.7455
1 12.9019 4.80296 7.9119
1 9.09431 8.5453 15.165
1 11.3913 2.79921 16.0741
1 14.7875 1.75776 14.7153
1 12.323 1.91108 3.62742
1 8.73372 5.32562 5.28481
1 3.83968 13.1908 9.75224
1 15.1033 0.0344413 5.24914
1 2.42271 13.0282 6.79648
1 15.3627 9.02112 5.09637
1 6.41781 6.73513 13.1591
1 4.12067 10.1577 15.5605
1 2.63903 0.82632 11.7954
1 13.5278 2.9067 5.33541
1 15.3277 11.2973 4.45055
1 5.44214 14.0871 15.6217
1 9.98515 15.726 4.39328
1 5.2423 14.3242 11.426
1 16.2934 2.88105 13.448
1 10.6671 12.0994 13.2026
1 12.4648 8.87815 2.17141
1 4.82521 13.2167 3.39282
1 0.404928 11.6003 11.1217
1 -0.0516703 9.89538 7.42303
1 8.26875 0.412243 14.1273
1 1.15527 14.1148 3.06631
1 15.3581 15.369 11.0853
1 14.8046 2.74466 11.5835
1 16.1918 3.32467 1.58245
1 15.7499 8.34738 12.8656
1 7.09251 4.55409 12.8805
1 12.2277 10.3333 5.79652
1 4.92256 0.297298 11.8311
1 11.2862 15.8162 9.28995
1 13.8029 4.92578 4.49672
1 3.50016 7.67054 15.0782
1 4.05763 13.525 1.02985
1 0.040487 4.77326 8.47871
1 4.41791 1.90057 8.30264
1 0.850246 15.8706 4.38981
1 7.64639 9.43608 4.78782
1 0.333144 7.92805 14.9244
1 0.5941 7.67042 4.01722
1 5.66843 4.36895 0.169036
1 4.43311 13.9864 7.65175
1 10.0754 4.80135 15.3106
1 3.70604 2.4198 2.27791
1 10.6965 11.3064 3.76319
1 2.57667 13.0682 4.30069
1 4.96303 8.12195 7.38744
1 6.61085 2.43024 5.54483
1 7.92623 11.2664 0.773517
1 6.17186 1.556 10.006
1 9.45467 0.379709 8.17249
1 9.01666 3.07226 5.61267
1 8.61897 14.7036 12.6314
1 4.37388 10.5075 7.63873
1 9.27846 2.18937 1.44576
1 6.0584 7.61447 5.29901
1 4.71205 16.1384 6.80136
1 3.14723 1.12752 15.673
1 1.1124 3.63556 4.54966
1 3.98582 4.11007 11.2096
1 1.4126 0.0892086 16.6056
1 2.73287 15.143 1.71608
1 12.0102 6.81302 0.96405
1 14.5533 11.6456 10.2686
1 8.29177 0.339941 10.2487
1 12.5609 3.06885 12.3053
1 8.4593 12.7298 13.7507
1 3.12703 6.81971 6.9477
1 6.09239 9.68351 0.593204
1 13.5128 5.83876 9.85748
1 9.79681 5.78404 11.2173
1 9.26484 4.79635 9.05152
1 15.4612 4.68733 10.4704
1 4.56674 6.0636 2.02486
1 4.84559 7.49961 11.3304
1 12.1539 8.53492 8.4893
1 6.0623 1.20554 13.7602
1 6.12218 0.436855 1.15523
1 11.3814 11.5811 15.2999
1 6.73076 5.59958 4.47356
1 4.75014 11.163 13.3738
1 2.611 10.371 2.31736
1 15.3991 11.9039 8.04105
1 8.44285 8.81987 7.1009
1 0.510015 12.9338 16.0792
1 5.68919 3.68607 7.49119
1 1.62899 13.4114 10.1614
1 12.6354 6.93759 13.4931
1 11.3367 6.55488 7.56078
1 8.09017 12.6195 8.9725
1 14.9569 1.08748 10.0377
1 5.60062 6.59689 15.2078
1 12.0022 3.27871 1.89663
1 13.5717 9.10639 13.1963
1 3.60865 4.00671 13.5113
1 1.53325 4.73066 0.0181325
1 11.0227 6.95953 15.1307
1 2.26879 2.06006 13.7764
1 1.11138 16.0034 7.30881
1 15.7461 1.14031 0.570857
1 14.1384 11.922 2.56377
1 6.35232 11.4208 3.71788
1 15.0413 5.57321 6.91568
