216
Atoms. Timestep: 8021
1 0.364454 13.5586 14.3914
1 0.723012 11.1045 13.7378
1 5.96601 12.4441 7.05648
1 6.42228 6.60268 2.74323
1 15.3196 15.8117 14.0883
1 6.52296 7.98235 12.8708
1 5.44637 2.98676 4.00576
1 4.74059 16.0222 3.67326
1 13.8784 15.048 10.7455
1 14.8697 3.87634 5.51551
1 14.2405 8.57953 10.6555
1 2.38413 2.76688 16.1156
1 0.525444 3.83924 7.51805
1 12.9016 15.408 2.8404
1 10.419 16.1171 11.7807
1 10.5952 8.79243 4.89339
1 2.64741 6.33511 9.79137
1 12.7587 7.1038 5.85659
1 5.99491 3.69261 11.0196
1 14.9313 12.8453 12.5623
1 2.39314 7.1235 12.2502
1 10.267 5.57095 3.91093
1 5.06088 5.09725 6.88076
1 6.24602 7.46398 9.40618
1 8.17192 4.8106 1.67314
1 12.1843 13.4175 11.574
1 10.7646 8.46589 10.2524
1 10.0026 9.65481 1.63682
1 15.4857 5.41523 0.67291
1 3.01758 3.8134 8.81832
1 1.1261 10.4949 11.3334
1 5.69051 9.20276 3.1765
1 13.5425 9.48062 0.856482
1 8.00681 13.987 11.1032
1 8.63909 6.8193 11.7888
1 11.5506 13.9513 9.04119
1 6.09912 10.5046 13.5056
1 0.884875 9.22161 7.69802
1 7.35441 10.4974 11.4292
1 11.4262 9.93681 16.1047
1 4.57017 12.7228 12.7902
1 9.06695 14.8104 15.5263
1 15.4302 8.04304 16.2395
1 13.1663 1.95237 14.8739
1 11.899 3.97069 7.57153
1 10.8364 7.70276 2.78269
1 4.60008 3.16008 15.2631
1 8.68743 15.3269 6.57681
1 14.0927 14.7642 1.16637
1 13.641 10.5679 12.3383
1 5.35328 4.41496 1.28367
1 4.09531 1.50816 5.71073
1 9.72814 3.10199 8.3209
1 0.940126 7.3856 5.81969
1 12.5848 5.4239 0.630356
1 11.7079 12.1028 16.0655
1 0.18354 0.0736784 9.11114
1 3.08609 3.61087 6.29641
1 7.41296 5.43182 9.82059
1 12.9985 15.8201 15.1375
1 12.9839 15.775 5.83296
1 14.5086 5.27 2.85623
1 0.229355 14.8294 1.18856
1 6.94677 0.0140231 5.45392
1 7.37721 6.1459 16.1318
1 11.6057 0.0859061 8.00897
1 13.1669 1.94454 7.59452
1 9.1521 1.22973 3.08305
1 1.98134 10.3274 15.8146
1 8.15069 8.58863 4.15029
1 9.785 6.18358 8.4386
1 5.58598 15.4871 0.337949
1 15.11 14.4608 8.86514
1 1.14221 5.67102 13.583
1 10.2538 1.87293 13.1064
1 1.75331 8.69571 3.219
1 15.0316 5.89781 12.999
1 1.80119 1.3127 4.47073
1 12.4833 13.2373 3.97055
1 7.56262 14.9521 3.09789
1 2.39031 14.6179 10.4555
1 10.667 0.265928 15.3236
1 13.7455 12.5136 1.05884
1 8.59944 8.68103 10.2475
1 0.22487 8.29519 12.2233
1 8.57428 13.0019 6.83401
1 8.20105 10.891 2.72451
1 10.5131 11.389 5.29111
1 2.85925 13.315 1.6606
1 14.7974 1.21431 5.61389
1 13.93 11.9752 9.76764
1 5.38456 7.57128 0.696814
1 9.63551 12.8198 0.217783
1 3.64189 11.0352 5.19693
1 7.92234 3.29904 13.1073
1 3.17845 8.41957 7.04771
1 0.296461 12.1175 5.0378
1 7.7791 11.8412 14.8696
1 0.294207 7.94138 9.74981
1 5.64588 1.79666 2.37802
1 11.6916 5.4413 14.2598
1 12.8957 13.5245 14.2319
1 10.9356 10.3046 7.58746
1 7.05346 1.00213 13.2535
1 0.213664 3.26847 15.2436
1 9.40052 13.2394 2.84939
1 2.40488 14.2554 13.1517
1 13.6882 11.6017 5.68619
1 5.35419 11.2 10.3414
1 14.1804 4.58446 14.7999
1 12.3021 6.24625 8.24056
1 7.90002 8.40364 14.9266
1 9.85867 2.41008 0.182426
1 16.1147 0.731445 16.1341
1 11.7001 0.63057 1.3162
1 9.0599 5.7519 6.079
1 4.86947 13.514 8.90881
1 14.8588 0.194302 3.29357
1 1.21342 15.1038 6.3101
1 14.5895 7.82624 4.49701
1 5.25123 5.71093 13.1243
1 3.8119 9.70134 14.4605
1 2.24366 1.49468 9.98415
1 10.8222 3.29133 2.49219
1 15.7238 10.1118 3.80554
1 6.07401 13.5534 14.4062
1 10.3625 14.6612 4.84059
1 5.49852 14.3341 11.0531
1 15.743 2.03227 13.3373
1 11.269 10.9729 10.6146
1 12.8836 7.60993 2.14242
1 6.06142 12.9341 2.51374
1 0.233041 12.7404 10.2493
1 1.85228 11.4071 6.81158
1 7.80369 14.9293 13.5413
1 2.03026 13.3145 4.01013
1 0.0487901 15.6688 11.6996
1 14.3957 2.74748 11.6008
1 0.316863 3.57179 3.41739
1 15.0931 9.59807 14.2707
1 6.3765 4.3361 14.6952
1 12.941 9.98671 4.10468
1 3.96689 16.1635 11.4133
1 12.5666 0.735756 10.4334
1 12.804 4.74699 5.35446
1 2.06632 6.8641 15.7423
1 4.929 12.6062 0.33651
1 0.0573684 5.83173 9.11079
1 4.69692 1.82971 8.77595
1 0.978067 15.2482 3.39831
1 8.11139 10.7057 5.80971
1 1.00134 8.8464 0.928241
1 3.81793 8.19728 4.56943
1 3.14853 5.78795 1.35619
1 3.61825 14.3696 7.00591
1 9.4927 4.31598 14.8927
1 2.93484 2.12778 2.59565
1 11.4318 11.5925 2.66972
1 4.38351 13.6417 4.86903
1 7.04067 8.68538 7.19938
1 7.57881 2.11302 4.69783
1 7.57329 10.1523 0.214154
1 6.08437 1.11139 10.6715
1 9.20712 0.448747 8.44761
1 8.08973 3.5908 6.696
1 10.3981 13.6702 12.9884
1 4.9965 10.2021 7.63663
1 7.49668 2.55352 0.837848
1 6.83901 6.71049 5.7292
1 5.06765 16.247 7.32857
1 3.05482 0.361866 13.7539
1 1.63384 4.97336 5.02406
1 3.6097 4.48716 11.5759
1 2.08532 0.413533 16.0527
1 3.41125 15.7529 1.73841
1 10.1325 6.4053 0.845073
1 12.6617 12.5051 7.64904
1 8.17922 0.0916669 10.6167
1 12.1872 3.26466 12.6845
1 9.38545 11.6597 12.6976
1 4.28425 6.83699 8.38178
1 4.9325 10.0435 0.830294
1 12.4408 6.35284 10.4814
1 10.6971 5.20061 11.7372
1 8.85383 3.89618 10.5931
1 15.0867 4.97585 10.5847
1 3.24094 6.2087 3.76561
1 4.72609 8.49961 11.3748
1 14.844 9.39885 6.82289
1 5.15966 0.883147 14.9661
1 7.94274 16.1634 1.04884
1 11.3643 10.4425 13.6409
1 5.46478 5.17724 4.20246
1 3.33676 10.6407 12.0428
1 3.16113 10.8716 2.62246
1 14.8563 14.22 6.43708
1 9.40537 8.64465 7.64223
1 0.944844 12.453 0.329151
1 6.29621 4.0156 8.16327
1 1.72069 13.4595 8.09255
1 13.6307 7.61187 13.8229
1 13.0883 9.0042 8.69591
1 9.50154 12.7909 8.99142
1 15.0247 1.9692 9.26328
1 4.06744 7.51635 14.7869
1 12.5888 2.87717 0.816341
1 11.1205 7.61436 13.2069
1 2.52097 3.84439 13.3965
1 1.41432 4.39866 1.58655
1 10.1028 8.02634 15.1541
1 1.5777 1.87959 12.2827
1 0.358478 1.01101 6.64867
1 15.0116 2.30704 2.02704
1 15.7095 11.0401 1.59862
1 5.81694 11.1821 4.67252
1 15.3429 6.568 6.93432
