216
Atoms. Timestep: 8001
1 0.236132 13.7061 14.4144
1 0.570241 11.2263 13.6962
1 5.93739 12.6189 7.24387
1 6.36793 6.72979 2.69978
1 15.3393 15.7884 14.0037
1 6.38962 7.88933 12.9142
1 5.34536 2.91685 4.23246
1 4.76114 16.0949 3.76551
1 13.7902 14.9116 10.6989
1 15.0415 3.73769 5.49799
1 14.4016 8.62702 10.6251
1 2.48717 2.80834 16.068
1 0.553283 3.73981 7.49927
1 12.8629 15.4289 2.86716
1 10.5323 16.1697 11.7458
1 10.6645 8.59224 4.99428
1 2.54587 6.37882 9.82155
1 12.7711 7.19957 5.71272
1 6.04537 3.79077 11.1112
1 14.8769 12.9715 12.6122
1 2.58939 7.13655 12.2256
1 10.0986 5.56149 4.06653
1 5.06442 5.19126 6.84346
1 6.14106 7.5786 9.63859
1 8.19147 4.89513 1.79815
1 12.0356 13.4729 11.6828
1 10.9598 8.49786 10.3077
1 9.92512 9.66771 1.66961
1 15.42 5.55694 0.751111
1 2.97906 3.90598 8.79676
1 1.05139 10.5716 11.4974
1 5.69992 9.16126 3.08529
1 13.4643 9.47036 0.79678
1 7.95106 14.1503 11.0887
1 8.71614 6.84233 11.8661
1 11.4907 14.1007 9.04846
1 6.16591 10.3945 13.4788
1 0.969015 9.16497 7.69249
1 7.37691 10.5459 11.4742
1 11.331 9.9114 16.1808
1 4.51037 12.6933 12.6205
1 9.07994 14.838 15.5783
1 15.2637 8.01641 16.2317
1 13.2255 1.93151 14.8007
1 11.7391 4.02535 7.46359
1 10.5785 7.54946 2.8996
1 4.78735 3.06002 15.315
1 8.78266 15.4017 6.57843
1 14.0678 14.676 0.959604
1 13.675 10.7271 12.4289
1 5.26588 4.46676 1.14313
1 4.09366 1.53871 5.60439
1 9.64746 2.9462 8.2895
1 1.0052 7.23929 5.56414
1 12.58 5.33414 0.552915
1 11.7255 12.2336 16.0437
1 0.152539 0.246702 9.12675
1 3.09886 3.65036 6.20364
1 7.31314 5.35017 9.68502
1 13.0796 15.9111 15.3066
1 12.9896 15.5176 5.96281
1 14.2845 5.3438 2.90042
1 0.268169 14.7402 1.14611
1 6.82995 16.2573 5.40568
1 7.54213 6.13724 15.9591
1 11.459 16.1946 8.03935
1 13.1752 2.04312 7.61853
1 9.09636 1.3185 2.93832
1 2.06957 10.2965 15.9014
1 8.11638 8.54822 4.1155
1 9.6113 6.14115 8.54462
1 5.52341 15.5603 0.327665
1 15.0798 14.347 8.80794
1 1.18589 5.57804 13.7578
1 10.2402 1.87493 13.1558
1 1.66367 8.83623 3.27836
1 15.184 5.88111 12.7493
1 1.70427 1.14828 4.52773
1 12.4161 13.3299 4.19731
1 7.59686 14.9505 3.10135
1 2.36239 14.8334 10.4543
1 10.5645 0.381718 15.208
1 13.7335 12.5029 1.0328
1 8.51297 8.56146 10.1098
1 0.218274 8.26417 12.2647
1 8.58713 12.9395 6.79527
1 8.12623 10.8071 2.74518
1 10.3572 11.3693 5.24701
1 2.7596 13.2069 1.67309
1 14.7064 1.42142 5.54272
1 13.8834 11.7283 9.6762
1 5.48051 7.57548 0.561579
1 9.57878 12.8098 0.31115
1 3.57014 10.9872 5.14036
1 7.95276 3.27449 12.992
1 3.14854 8.51269 6.92451
1 0.23899 12.0003 5.31521
1 7.86422 11.9147 14.8093
1 0.397008 7.89 9.6791
1 5.52869 1.86097 2.10904
1 11.5933 5.16635 14.2769
1 12.8898 13.658 14.1952
1 11.0821 10.4164 7.59847
1 7.15336 1.02364 13.2323
1 0.163082 3.30097 15.2491
1 9.30188 13.0071 2.86813
1 2.6095 14.1474 13.0009
1 13.8805 11.6845 5.64102
1 5.36962 11.3038 10.2891
1 14.229 4.64022 14.7916
1 12.3604 6.16237 8.18391
1 7.82116 8.39758 14.9372
1 9.87889 2.504 0.143602
1 16.1395 0.854959 16.1538
1 11.7221 0.612604 1.44397
1 9.04426 5.85152 6.19261
1 4.83286 13.401 9.08131
1 14.8492 0.362195 3.59088
1 1.31333 15.0882 6.22176
1 14.734 7.90618 4.4747
1 5.41694 5.77452 13.0739
1 3.94225 9.71028 14.6629
1 2.199 1.42354 10.0319
1 10.8485 3.17435 2.74617
1 15.9882 10.1378 3.87067
1 6.33852 13.4992 14.2014
1 10.4572 14.6419 4.67828
1 5.7087 14.3238 11.0699
1 15.8408 2.05069 13.2951
1 11.4 11.082 10.6351
1 12.8602 7.61522 2.22748
1 6.24758 12.7258 2.54509
1 0.33469 12.8343 10.2432
1 1.74845 11.4502 6.89407
1 7.74029 15.0044 13.4886
1 2.01606 13.3767 4.31888
1 16.2707 15.5655 11.7311
1 14.3358 2.6779 11.5625
1 0.213342 3.6222 3.46227
1 15.1753 9.61124 14.0182
1 6.55037 4.49465 14.686
1 12.7841 9.8142 4.03518
1 4.0381 0.0599357 11.3156
1 12.6431 0.836208 10.473
1 12.5657 4.71621 5.42406
1 2.11054 6.79758 15.722
1 4.84767 12.6164 0.39422
1 0.0100949 5.6786 8.91091
1 4.76309 1.74724 8.82437
1 0.712882 15.378 3.41967
1 8.08632 10.6095 5.91105
1 0.964764 8.90556 1.02366
1 3.78695 8.2293 4.44276
1 3.16438 5.97666 1.3924
1 3.64921 14.5313 6.95655
1 9.61604 4.28175 14.9563
1 3.02543 2.15956 2.45576
1 11.4949 11.5765 2.51406
1 4.51121 13.7689 4.77252
1 7.06896 8.56802 7.23246
1 7.49645 2.06166 4.6562
1 7.59271 10.1241 0.473319
1 6.21696 1.2914 10.6771
1 9.16972 0.4551 8.461
1 8.13429 3.52157 6.61008
1 10.1658 13.8045 12.8968
1 4.93616 10.1524 7.6209
1 7.5364 2.51011 0.970642
1 6.98177 6.646 5.6069
1 5.19367 16.2156 7.2429
1 3.03509 0.442536 13.7252
1 1.60211 5.04454 5.09535
1 3.79542 4.66764 11.3732
1 2.20071 0.294507 15.9957
1 3.32424 15.83 1.71899
1 10.165 6.4614 0.641146
1 12.7642 12.6029 7.89066
1 8.27394 0.0377859 10.4701
1 12.1817 3.25702 12.8776
1 9.29304 11.538 12.714
1 4.32135 6.88191 8.36975
1 4.83297 10.1336 0.82502
1 12.5423 6.07937 10.3604
1 10.8054 5.29277 11.734
1 9.04793 3.88135 10.6313
1 15.0941 4.74679 10.6489
1 3.26398 5.97144 3.65967
1 4.71189 8.56937 11.2858
1 14.8654 9.24447 6.775
1 4.96074 0.760365 14.9999
1 7.98876 16.1741 1.0546
1 11.4737 10.4733 13.4851
1 5.30419 5.19402 4.23967
1 3.49436 10.647 12.0466
1 3.05246 10.8097 2.61572
1 14.677 14.2043 6.41617
1 9.41671 8.68591 7.53801
1 0.931339 12.4064 0.433573
1 6.25577 3.80022 8.1575
1 1.67186 13.3288 8.11741
1 13.5503 7.55122 13.9172
1 13.0613 8.8667 8.67472
1 9.45222 12.8853 9.23422
1 14.9506 2.01226 9.25747
1 4.10037 7.56813 14.7091
1 12.7288 2.83093 0.957418
1 11.2287 7.88932 13.1717
1 2.59437 3.92324 13.485
1 1.24213 4.56921 1.58974
1 10.0933 8.00101 15.2386
1 1.64568 1.81537 12.3291
1 0.388339 1.01949 6.71127
1 14.8973 2.22424 1.98964
1 15.6791 10.7867 1.56571
1 5.80498 11.1141 4.64245
1 15.2317 6.31053 7.05697
