216
Atoms. Timestep: 4000
1 0.458092 14.9037 14.836
1 0.409806 12.1369 13.2445
1 5.4382 12.259 6.15498
1 7.73193 6.79088 2.05861
1 15.0099 15.8006 13.611
1 7.65041 8.46828 13.0744
1 4.22372 4.41207 3.53587
1 3.57008 0.42153 3.12083
1 13.448 13.641 10.5858
1 15.4171 2.38646 6.18479
1 14.6043 8.05827 10.1239
1 3.25888 3.18813 0.194063
1 1.5492 2.90134 8.38653
1 12.9945 16.3216 3.44274
1 10.8306 15.4398 11.616
1 12.9787 8.60552 4.25757
1 1.92464 6.80674 9.09386
1 12.6703 6.45558 4.92247
1 6.05449 3.52111 10.6899
1 14.6978 12.412 14.6731
1 2.76345 6.20323 11.1641
1 10.6142 6.20804 3.79298
1 4.00072 4.86707 5.80784
1 6.28657 7.16303 9.33139
1 10.7936 5.09948 1.86187
1 12.1632 13.5957 12.5887
1 10.9812 10.1302 11.3778
1 10.4061 9.93995 2.23787
1 2.20048 6.76615 0.822382
1 3.12193 2.26116 9.93757
1 3.65506 9.7683 11.3291
1 4.31207 10.1453 2.60743
1 14.0008 10.1605 1.08349
1 7.82184 14.4466 10.4132
1 9.56106 8.19282 11.5122
1 10.8799 11.5399 9.27428
1 6.71224 10.8185 12.7241
1 15.0679 8.41829 7.19635
1 7.13996 10.8243 10.2733
1 9.3808 10.162 16.5508
1 4.17025 13.3174 13.1707
1 8.87299 0.524346 16.3063
1 15.491 8.42798 0.50692
1 13.3226 3.29467 14.5734
1 12.3585 2.54751 7.72158
1 9.31202 8.17729 3.30505
1 5.58693 3.17527 14.1852
1 8.37166 15.2277 6.29283
1 14.0817 15.9345 1.37993
1 13.3548 10.6539 15.3581
1 7.01538 2.81405 1.56229
1 3.39692 0.824469 5.41429
1 9.92328 2.58211 7.65935
1 16.0721 5.56142 5.27575
1 14.2305 6.32491 0.40716
1 10.9133 13.772 0.326664
1 0.0925437 1.15974 7.93876
1 2.66842 3.00733 6.29201
1 6.88128 4.83951 8.94182
1 12.3667 15.3911 16.1949
1 12.9423 13.8864 6.37642
1 14.4127 4.42082 1.97735
1 15.3084 13.9694 1.87726
1 6.58328 -0.0629453 5.40681
1 8.62071 4.75679 0.787631
1 12.0841 13.492 8.58554
1 13.2969 0.632363 8.76583
1 9.75679 1.39052 3.78438
1 1.61297 10.9634 14.7728
1 4.28969 8.18887 3.73989
1 9.68426 6.12118 7.4098
1 5.04372 16.3242 15.6481
1 16.1224 13.9141 7.62559
1 4.16539 6.23018 14.2858
1 11.4196 1.16211 12.5586
1 0.965684 8.399 1.99635
1 0.52008 6.22039 12.443
1 0.867855 2.35824 3.13006
1 11.8463 14.6345 4.26424
1 5.92315 15.8687 3.17239
1 1.35718 14.9774 11.3577
1 11.1908 0.829335 14.9928
1 11.9689 12.9937 2.63156
1 8.02603 8.58571 9.61596
1 1.27248 9.55617 11.7783
1 7.76941 12.8734 6.62159
1 7.7688 12.316 2.66025
1 8.41745 11.5079 4.75699
1 2.05235 12.0635 0.453833
1 14.4389 15.6024 7.10194
1 13.4061 9.64769 11.3804
1 6.78786 7.84931 0.193686
1 8.75655 14.5804 0.478671
1 2.25361 9.92944 6.49572
1 9.08969 4.13802 12.8431
1 2.42965 8.09257 5.14989
1 1.55882 11.133 4.3638
1 7.2898 13.1545 15.4534
1 0.539862 8.35531 9.91268
1 6.32226 3.61386 3.64855
1 12.1877 5.15939 11.6828
1 13.4338 14.3955 14.3346
1 11.2106 9.85466 7.71646
1 9.21877 1.88008 12.0701
1 0.0116793 5.01818 14.506
1 8.12301 14.5738 2.64007
1 1.88238 14.0361 13.2728
1 14.0774 11.7701 6.12812
1 4.78457 11.0129 9.66895
1 14.0458 5.45166 14.7779
1 13.3744 4.85242 8.19715
1 8.75549 8.28302 15.2465
1 11.5028 2.98453 15.8874
1 15.1687 1.73839 14.5934
1 12.0505 1.95556 3.53823
1 9.13818 5.32657 5.32172
1 3.9514 13.1627 9.68611
1 14.7377 16.8569 5.07099
1 2.00958 14.0521 6.7467
1 15.1139 8.91201 4.88407
1 5.96275 6.7191 12.8787
1 4.05276 9.97249 15.1759
1 2.80017 0.469487 11.539
1 13.0344 3.06806 5.37609
1 15.5113 11.1585 4.28197
1 5.1285 13.9263 15.3119
1 9.45202 15.4567 4.19728
1 5.41428 14.2065 11.1607
1 0.246707 2.9178 13.3181
1 10.6627 11.8086 13.1343
1 12.3585 8.73818 2.03286
1 4.55122 13.8371 3.2927
1 0.390932 11.6966 11.0742
1 0.363246 9.88167 8.01701
1 8.33036 0.397944 13.9867
1 0.8313 14.4192 3.04112
1 15.3039 15.3597 11.2838
1 15.1681 2.73859 11.5657
1 16.2565 3.12984 1.37972
1 -0.331603 8.27425 12.9667
1 6.88668 4.50541 12.7562
1 12.0554 10.417 5.61584
1 5.12215 0.0508085 11.867
1 11.2904 15.6352 9.30103
1 14.2424 4.86864 4.2498
1 2.82918 7.96186 15.3206
1 3.81684 13.4862 0.85951
1 0.531701 4.96838 8.81691
1 4.8184 1.7849 8.19255
1 0.381019 0.0632135 4.04829
1 8.21704 9.23979 5.29424
1 0.487538 8.70943 14.9728
1 0.482903 7.45956 4.26983
1 5.70462 3.79736 -0.0309763
1 4.21336 13.9916 7.48105
1 9.86012 4.64549 15.0961
1 3.07282 2.64657 2.51665
1 10.7632 11.3775 3.9616
1 2.44938 13.2825 4.57652
1 5.24594 7.89789 7.27422
1 6.84892 2.37345 5.54322
1 7.38644 11.3143 0.446075
1 6.07185 1.23295 10.0866
1 9.32669 0.171199 8.15167
1 9.17717 3.02837 5.4588
1 8.82924 14.8379 12.6261
1 4.55966 10.3815 7.41557
1 9.57752 2.30632 1.61723
1 6.13586 7.80448 5.11908
1 4.87245 -0.23785 6.86111
1 2.90954 1.20551 15.5984
1 0.663255 3.39512 5.13716
1 3.88293 4.09865 11.3532
1 1.14527 16.3838 0.0137402
1 2.24758 15.1547 1.56786
1 11.9776 6.80004 0.840615
1 14.5441 11.7046 10.7065
1 8.24781 0.245379 10.3506
1 12.8533 3.0256 12.2549
1 8.41594 12.4448 13.3535
1 3.36043 6.84943 6.96459
1 5.59935 9.82918 0.64017
1 13.8617 5.85393 10.2116
1 9.93875 5.59493 11.0926
1 9.14772 4.59785 9.05752
1 15.8031 4.96646 10.8319
1 4.15738 6.43618 2.112
1 4.63735 7.52272 10.9667
1 12.8832 8.22957 8.20476
1 5.87308 0.974426 13.8463
1 6.5354 0.462082 1.00774
1 11.1079 11.5302 15.6076
1 7.16291 5.82042 4.02498
1 4.52378 11.0936 13.18
1 1.89698 10.4727 2.21459
1 15.2401 11.7566 8.24092
1 9.26682 8.48838 7.26334
1 -0.0316538 13.0708 16.4251
1 5.75804 3.66159 7.12156
1 1.46536 13.3461 9.69553
1 12.4953 6.62877 13.567
1 12.0769 6.35393 7.09513
1 8.51636 12.4381 9.11112
1 15.2826 0.994365 10.1647
1 5.32634 6.02452 16.3054
1 12.3397 3.24717 1.71876
1 13.821 8.84676 13.5536
1 3.5114 3.84807 13.5731
1 1.30723 4.47142 0.135779
1 10.6593 6.82063 15.258
1 2.17768 1.86736 13.4189
1 1.43036 16.3183 6.17193
1 15.6713 1.14886 0.532225
1 14.2023 12.0696 2.55334
1 5.46151 11.8163 3.79191
1 15.3845 5.96585 7.33086
