216
Atoms. Timestep: 8006
1 0.268145 13.6469 14.4055
1 0.623252 11.1848 13.7038
1 5.92954 12.5644 7.18947
1 6.36638 6.68322 2.71789
1 15.3364 15.7886 14.0268
1 6.42523 7.94279 12.9011
1 5.37647 2.93601 4.11535
1 4.74143 16.091 3.71775
1 13.8224 14.9584 10.7062
1 14.9671 3.78486 5.49901
1 14.3568 8.60618 10.6232
1 2.44434 2.79054 16.0643
1 0.549735 3.79668 7.50653
1 12.8868 15.4208 2.83682
1 10.4914 16.1431 11.7643
1 10.624 8.66617 4.93294
1 2.58919 6.37399 9.79799
1 12.7817 7.16115 5.76003
1 6.037 3.76724 11.0604
1 14.9028 12.9194 12.6039
1 2.49705 7.12438 12.2353
1 10.1538 5.59154 4.01569
1 5.08618 5.13847 6.86524
1 6.17235 7.52173 9.54897
1 8.16145 4.85846 1.73205
1 12.0762 13.4653 11.664
1 10.8489 8.48632 10.2763
1 9.95037 9.67188 1.64545
1 15.4325 5.48924 0.734104
1 3.00056 3.88082 8.79985
1 1.07651 10.5328 11.436
1 5.70517 9.17109 3.10661
1 13.4831 9.47816 0.81387
1 7.95506 14.0956 11.0986
1 8.69358 6.82975 11.8322
1 11.5191 14.032 9.03695
1 6.13418 10.4314 13.4681
1 0.945475 9.17775 7.69171
1 7.34822 10.5292 11.4707
1 11.3574 9.94058 16.1756
1 4.533 12.6787 12.6847
1 9.07279 14.8102 15.5608
1 15.3387 8.03921 16.2354
1 13.1882 1.90985 14.8386
1 11.8018 4.02087 7.50578
1 10.6887 7.60986 2.8683
1 4.73153 3.10226 15.29
1 8.74358 15.3787 6.59073
1 14.0651 14.7056 1.07095
1 13.6638 10.6683 12.4039
1 5.32324 4.44799 1.19891
1 4.10969 1.53044 5.65713
1 9.68195 3.01427 8.2933
1 0.989183 7.29554 5.67359
1 12.597 5.36793 0.57711
1 11.7019 12.1672 16.075
1 0.152495 0.17624 9.12302
1 3.08379 3.62763 6.22639
1 7.34923 5.35891 9.74492
1 13.0333 15.9057 15.2355
1 13.0028 15.61 5.91991
1 14.3762 5.3078 2.86432
1 0.263026 14.7672 1.17068
1 6.87164 16.2804 5.42847
1 7.47839 6.1321 16.0408
1 11.5034 16.2578 8.01785
1 13.1674 2.01199 7.60703
1 9.10723 1.27409 2.99817
1 2.03524 10.2898 15.8772
1 8.13739 8.56359 4.12321
1 9.67235 6.15112 8.50529
1 5.54423 15.5472 0.321166
1 15.0831 14.3993 8.83668
1 1.17685 5.59762 13.672
1 10.2503 1.88317 13.1224
1 1.70845 8.77143 3.24558
1 15.1172 5.88459 12.8508
1 1.73839 1.20082 4.51344
1 12.4392 13.2924 4.10249
1 7.59395 14.9589 3.09
1 2.3903 14.7634 10.4589
1 10.6202 0.335208 15.2658
1 13.7457 12.5249 1.03326
1 8.57629 8.60085 10.1637
1 0.219444 8.27432 12.2384
1 8.58983 12.9582 6.79307
1 8.16661 10.8209 2.72439
1 10.4117 11.3717 5.26525
1 2.7906 13.2541 1.66678
1 14.7702 1.33541 5.56684
1 13.9008 11.8371 9.69719
1 5.4485 7.58371 0.638319
1 9.62304 12.8141 0.265761
1 3.61846 11.019 5.15597
1 7.93152 3.28734 13.0389
1 3.14127 8.47526 6.97842
1 0.281294 12.0432 5.20021
1 7.81832 11.8989 14.8312
1 0.350542 7.88849 9.71262
1 5.57892 1.8537 2.24773
1 11.6348 5.26915 14.2608
1 12.8944 13.6081 14.2046
1 11.0018 10.3481 7.57473
1 7.1312 1.01786 13.2354
1 0.194714 3.27942 15.2436
1 9.34308 13.0996 2.86063
1 2.54279 14.19 13.0531
1 13.7942 11.6476 5.65914
1 5.3711 11.2696 10.3344
1 14.2051 4.62799 14.7966
1 12.3421 6.17732 8.2177
1 7.86258 8.40593 14.9202
1 9.89528 2.45454 0.172529
1 16.1546 0.80726 16.1346
1 11.7186 0.639667 1.37784
1 9.0593 5.82191 6.1483
1 4.86214 13.4441 8.99977
1 14.8379 0.284422 3.471
1 1.30186 15.1036 6.26043
1 14.6732 7.87737 4.50603
1 5.36331 5.741 13.0862
1 3.88442 9.68297 14.594
1 2.21106 1.44862 10.0238
1 10.8624 3.20087 2.63183
1 15.8809 10.1293 3.84026
1 6.26111 13.5212 14.251
1 10.4216 14.6545 4.73855
1 5.6339 14.3325 11.0578
1 15.8147 2.05673 13.3149
1 11.3514 11.0346 10.6395
1 12.8405 7.62001 2.18619
1 6.17166 12.8062 2.51864
1 0.305205 12.8014 10.2335
1 1.79109 11.4512 6.85924
1 7.75147 14.968 13.5163
1 2.01486 13.3511 4.20846
1 16.286 15.6166 11.7239
1 14.373 2.70474 11.5833
1 0.252243 3.61232 3.42805
1 15.1453 9.6127 14.1211
1 6.46481 4.42225 14.7062
1 12.8472 9.88178 4.06898
1 3.98609 -0.0173289 11.3573
1 12.6163 0.801678 10.4634
1 12.6685 4.72239 5.42071
1 2.11188 6.81304 15.7318
1 4.86918 12.5962 0.367257
1 0.0126565 5.74712 9.0034
1 4.73567 1.7682 8.80614
1 0.814392 15.3088 3.41327
1 8.11362 10.6529 5.88582
1 0.974741 8.89803 0.994039
1 3.79497 8.20189 4.48682
1 3.13591 5.90452 1.37896
1 3.61853 14.4589 6.98153
1 9.57585 4.29407 14.9249
1 3.00881 2.13915 2.5296
1 11.4583 11.5843 2.5646
1 4.45978 13.7144 4.81382
1 7.08197 8.61266 7.21201
1 7.51543 2.07189 4.65575
1 7.60564 10.131 0.386709
1 6.17863 1.21366 10.6582
1 9.17354 0.432122 8.46353
1 8.11844 3.54436 6.65022
1 10.2763 13.7295 12.9194
1 4.94884 10.1686 7.62208
1 7.51153 2.52922 0.926321
1 6.91189 6.65745 5.64102
1 5.14305 16.2189 7.28099
1 3.04637 0.427065 13.7441
1 1.62402 5.01616 5.07489
1 3.72079 4.59412 11.455
1 2.15203 0.335956 16.0112
1 3.36328 15.8092 1.73564
1 10.1467 6.4546 0.727003
1 12.7193 12.5808 7.8054
1 8.21878 0.0655121 10.526
1 12.1762 3.27331 12.8012
1 9.33318 11.5913 12.7062
1 4.3122 6.86226 8.39424
1 4.86632 10.0884 0.833238
1 12.4802 6.17093 10.384
1 10.7686 5.2575 11.7485
1 8.94075 3.89441 10.6127
1 15.1324 4.83781 10.5962
1 3.25134 6.07132 3.69737
1 4.72927 8.55185 11.328
1 14.8666 9.30317 6.7935
1 5.01476 0.797823 15.0146
1 7.98372 16.1735 1.06271
1 11.4322 10.4681 13.5526
1 5.38754 5.181 4.22004
1 3.4431 10.6596 12.0428
1 3.09517 10.8398 2.61838
1 14.7314 14.2306 6.4245
1 9.41354 8.69576 7.57374
1 0.938236 12.4179 0.39864
1 6.26418 3.9115 8.15877
1 1.69665 13.385 8.08768
1 13.5756 7.57473 13.8864
1 13.0807 8.91045 8.70332
1 9.47166 12.8568 9.13093
1 14.9846 1.97906 9.26536
1 4.08303 7.58008 14.7474
1 12.6385 2.83792 0.902274
1 11.1853 7.77501 13.2081
1 2.54829 3.92107 13.4542
1 1.30838 4.51757 1.60825
1 10.0948 8.01004 15.1982
1 1.61504 1.83301 12.2986
1 0.359958 1.00358 6.66937
1 14.9444 2.26586 2.01664
1 15.7053 10.8855 1.5816
1 5.77859 11.1303 4.66325
1 15.2858 6.41677 7.01303
