216
Atoms. Timestep: 8023
1 0.373832 13.5525 14.3898
1 0.731054 11.0966 13.741
1 5.97209 12.4333 7.04445
1 6.43084 6.59742 2.74547
1 15.3178 15.8139 14.0942
1 6.53309 7.9821 12.8683
1 5.45192 2.99166 4.00542
1 4.743 16.0137 3.6724
1 13.8831 15.056 10.7509
1 14.8656 3.88321 5.51811
1 14.2284 8.5771 10.6611
1 2.38022 2.76531 16.1234
1 0.521759 3.84 7.51889
1 12.8986 15.4071 2.84529
1 10.4132 16.1155 11.7814
1 10.5955 8.80188 4.89348
1 2.65056 6.32926 9.79399
1 12.7541 7.10029 5.86535
1 5.98899 3.68419 11.0193
1 14.9329 12.8404 12.558
1 2.38869 7.1248 12.2505
1 10.2776 5.56569 3.90157
1 5.05431 5.0977 6.87996
1 6.25287 7.46263 9.39545
1 8.17785 4.80732 1.67184
1 12.1954 13.4116 11.5628
1 10.7655 8.46449 10.2524
1 10.0067 9.65268 1.63762
1 15.4923 5.41159 0.665785
1 3.01717 3.80709 8.82099
1 1.12972 10.4936 11.3249
1 5.68832 9.20591 3.18445
1 13.5495 9.48029 0.860292
1 8.01306 13.9773 11.103
1 8.63305 6.81929 11.7864
1 11.5519 13.9477 9.04255
1 6.09727 10.511 13.5117
1 0.879091 9.22695 7.69934
1 7.35825 10.495 11.4244
1 11.4334 9.93246 16.0968
1 4.57206 12.7301 12.7977
1 9.06705 14.8133 15.5236
1 15.4348 8.04076 16.24
1 13.1669 1.96055 14.8741
1 11.9069 3.9646 7.57591
1 10.8453 7.71002 2.77499
1 4.58628 3.16347 15.2617
1 8.68392 15.3226 6.57446
1 14.0967 14.7677 1.16545
1 13.6381 10.5594 12.3318
1 5.35047 4.41173 1.28895
1 4.09248 1.50625 5.71148
1 9.73098 3.10738 8.32442
1 0.93641 7.39197 5.82802
1 12.5814 5.4285 0.635472
1 11.7116 12.1015 16.0618
1 0.188974 0.0671928 9.10983
1 3.08799 3.61056 6.30371
1 7.41833 5.44182 9.82473
1 12.9991 15.8083 15.131
1 12.9805 15.7868 5.82446
1 14.5179 5.26862 2.85866
1 0.225681 14.8345 1.18836
1 6.95171 0.0126495 5.45505
1 7.36943 6.14866 16.1345
1 11.6147 0.0923439 8.01056
1 13.1688 1.93917 7.59442
1 9.15756 1.22791 3.08815
1 1.97804 10.3333 15.8085
1 8.15026 8.59049 4.15295
1 9.79408 6.18702 8.43264
1 5.58961 15.4803 0.340379
1 15.1129 14.4635 8.86544
1 1.13858 5.67824 13.5801
1 10.2533 1.8706 13.1081
1 1.75435 8.69242 3.21837
1 15.0265 5.89873 13.0087
1 1.8059 1.3219 4.46733
1 12.4876 13.2348 3.96154
1 7.55821 14.9506 3.10012
1 2.38671 14.6048 10.4545
1 10.6672 0.260621 15.3252
1 13.7437 12.5105 1.06303
1 8.59452 8.68829 10.254
1 0.225061 8.2981 12.224
1 8.57166 13.0054 6.83937
1 8.20152 10.8997 2.72575
1 10.5212 11.3917 5.29394
1 2.86595 13.3181 1.65876
1 14.7939 1.20675 5.6161
1 13.9318 11.9837 9.77437
1 5.37812 7.56861 0.697519
1 9.6327 12.82 0.216133
1 3.64012 11.0334 5.20112
1 7.92312 3.29875 13.1117
1 3.18456 8.41616 7.05192
1 0.294116 12.1234 5.02732
1 7.77806 11.836 14.8721
1 0.290653 7.94995 9.75174
1 5.65049 1.78719 2.38025
1 11.695 5.45327 14.2621
1 12.8954 13.5173 14.2349
1 10.9346 10.3062 7.59214
1 7.04521 1.00042 13.2557
1 0.212976 3.26901 15.2436
1 9.40412 13.2496 2.84821
1 2.39262 14.2596 13.1603
1 13.6829 11.5999 5.6882
1 5.35096 11.194 10.338
1 14.1789 4.57896 14.8
1 12.2982 6.25402 8.2404
1 7.90066 8.40185 14.9291
1 9.85061 2.40936 0.180233
1 16.1069 0.725721 16.1362
1 11.6982 0.625907 1.31528
1 9.05822 5.74531 6.07357
1 4.86837 13.5187 8.90425
1 14.8645 0.191471 3.28281
1 1.20129 15.1027 6.31193
1 14.5831 7.82152 4.49174
1 5.24067 5.71085 13.1283
1 3.80739 9.70611 14.4487
1 2.24701 1.49746 9.98008
1 10.8143 3.30181 2.48434
1 15.7135 10.1105 3.80353
1 6.05701 13.5565 14.4236
1 10.3591 14.6607 4.84864
1 5.48874 14.3321 11.0538
1 15.7357 2.02815 13.3384
1 11.2623 10.9688 10.6109
1 12.8937 7.60778 2.14045
1 6.05384 12.9441 2.5161
1 0.2262 12.7349 10.2527
1 1.85589 11.4019 6.80812
1 7.80898 14.9268 13.5417
1 2.03296 13.3115 3.99398
1 0.0522049 15.6711 11.6977
1 14.395 2.75105 11.5999
1 0.322 3.56723 3.42009
1 15.0889 9.59655 14.2813
1 6.37321 4.33228 14.6921
1 12.9477 9.99329 4.10583
1 3.96834 16.1599 11.4164
1 12.5623 0.730499 10.4304
1 12.8109 4.75028 5.34644
1 2.05968 6.86893 15.7431
1 4.93501 12.6091 0.335109
1 0.0643019 5.8368 9.11458
1 4.69498 1.83639 8.77415
1 0.990971 15.2483 3.398
1 8.10916 10.7085 5.80149
1 1.00492 8.84063 0.922588
1 3.82092 8.20094 4.57756
1 3.15341 5.77958 1.35487
1 3.6215 14.365 7.00661
1 9.48579 4.31797 14.8917
1 2.92764 2.12784 2.59703
1 11.4311 11.5924 2.67742
1 4.37733 13.6379 4.87211
1 7.03422 8.69142 7.1996
1 7.58607 2.11784 4.70429
1 7.5679 10.1545 0.200198
1 6.0742 1.10522 10.6753
1 9.21157 0.453392 8.44542
1 8.08775 3.59485 6.69828
1 10.405 13.6704 12.9958
1 5.00152 10.2048 7.63919
1 7.49684 2.55407 0.829607
1 6.83638 6.71663 5.73812
1 5.06245 16.2502 7.33083
1 3.05498 0.355155 13.7543
1 1.63296 4.97095 5.01969
1 3.60263 4.4802 11.5833
1 2.08259 0.420258 16.0566
1 3.41402 15.7476 1.73647
1 10.132 6.39933 0.851945
1 12.6581 12.4965 7.63626
1 8.17963 0.0917143 10.6231
1 12.1892 3.26225 12.6761
1 9.38816 11.6632 12.6969
1 4.28189 6.8349 8.37736
1 4.93837 10.0418 0.828515
1 12.4413 6.36947 10.4928
1 10.6911 5.19536 11.7338
1 8.85306 3.89406 10.5924
1 15.0751 4.98556 10.5902
1 3.24081 6.21599 3.77021
1 4.72387 8.49403 11.3767
1 14.8399 9.4068 6.8252
1 5.17336 0.890819 14.9581
1 7.9377 16.1625 1.04633
1 11.3594 10.4396 13.645
1 5.46635 5.17908 4.2028
1 3.32848 10.6371 12.0431
1 3.16611 10.8721 2.62278
1 14.8675 14.2164 6.43754
1 9.40341 8.63601 7.64784
1 0.945772 12.4578 0.323784
1 6.30037 4.01828 8.16499
1 1.72105 13.4636 8.09621
1 13.6358 7.61606 13.8161
1 13.0873 9.01356 8.69147
1 9.5042 12.7839 8.98282
1 15.0268 1.97114 9.26228
1 4.0674 7.5066 14.7883
1 12.5922 2.88222 0.810264
1 11.116 7.60388 13.2023
1 2.52038 3.83406 13.3929
1 1.42232 4.38713 1.58176
1 10.1034 8.02723 15.1535
1 1.57593 1.8835 12.2835
1 0.362642 1.0138 6.65059
1 15.0156 2.30847 2.02508
1 15.7075 11.0514 1.59896
1 5.82578 11.1877 4.67007
1 15.3457 6.57728 6.92921
