216
Atoms. Timestep: 8029
1 0.396097 13.5394 14.3851
1 0.748872 11.0765 13.7481
1 5.98922 12.4085 7.01662
1 6.45558 6.58763 2.75108
1 15.3132 15.8191 14.1084
1 6.55886 7.97802 12.8625
1 5.46404 3.00234 4.01478
1 4.75161 15.9914 3.67368
1 13.8943 15.0756 10.7663
1 14.8621 3.89757 5.52592
1 14.197 8.57058 10.6777
1 2.37209 2.76177 16.1454
1 0.51098 3.83912 7.52069
1 12.8861 15.4053 2.86219
1 10.4 16.1117 11.7828
1 10.5991 8.82216 4.89703
1 2.65566 6.31217 9.80417
1 12.7406 7.09399 5.88667
1 5.97266 3.6623 11.0216
1 14.9365 12.83 12.5483
1 2.38346 7.12955 12.2497
1 10.3038 5.55015 3.87957
1 5.03435 5.10299 6.87565
1 6.26904 7.46405 9.37153
1 8.19772 4.80032 1.67264
1 12.2232 13.3964 11.5328
1 10.7762 8.46185 10.2552
1 10.0153 9.64793 1.6405
1 15.5103 5.40576 0.647
1 3.0135 3.79212 8.82875
1 1.13685 10.4923 11.3049
1 5.68245 9.21325 3.20502
1 13.5681 9.47901 0.869097
1 8.02925 13.9538 11.1017
1 8.61705 6.82051 11.7821
1 11.5539 13.9428 9.04627
1 6.09365 10.5262 13.5277
1 0.865194 9.24157 7.70326
1 7.37012 10.49 11.4126
1 11.4522 9.91781 16.0778
1 4.57428 12.7501 12.8129
1 9.06796 14.823 15.5179
1 15.4415 8.03212 16.2415
1 13.1706 1.98376 14.8711
1 11.9257 3.94898 7.58457
1 10.8624 7.72675 2.75754
1 4.55073 3.16975 15.259
1 8.67733 15.3131 6.56855
1 14.1073 14.7733 1.1525
1 13.6294 10.5388 12.3157
1 5.33805 4.40316 1.29855
1 4.08465 1.50192 5.70813
1 9.73646 3.11803 8.33382
1 0.929615 7.40574 5.8425
1 12.5711 5.43938 0.64817
1 11.7232 12.1036 16.051
1 0.205564 0.0550043 9.10654
1 3.09387 3.61098 6.3222
1 7.43137 5.46917 9.83212
1 13.0045 15.7761 15.1178
1 12.9706 15.8101 5.8027
1 14.5379 5.26748 2.86728
1 0.217075 14.8457 1.18597
1 6.96068 0.00814989 5.45641
1 7.35158 6.15668 16.1346
1 11.6353 0.104648 8.01732
1 13.1761 1.92794 7.59563
1 9.17238 1.22559 3.0972
1 1.97207 10.3499 15.7937
1 8.14764 8.59427 4.15926
1 9.81437 6.19564 8.41776
1 5.59809 15.4633 0.346685
1 15.1199 14.4672 8.86346
1 1.12966 5.69487 13.5789
1 10.2516 1.86347 13.1158
1 1.75339 8.68839 3.21849
1 15.0168 5.90021 13.0283
1 1.81566 1.3421 4.46079
1 12.4989 13.2326 3.9425
1 7.54584 14.9469 3.10679
1 2.37414 14.5737 10.4514
1 10.6642 0.249066 15.3253
1 13.7371 12.5016 1.07577
1 8.57535 8.70544 10.2686
1 0.224776 8.307 12.2276
1 8.56405 13.0126 6.85338
1 8.20026 10.9231 2.72871
1 10.539 11.4001 5.30249
1 2.8828 13.3224 1.65141
1 14.7801 1.19248 5.6185
1 13.9347 11.9998 9.78979
1 5.36133 7.56059 0.695396
1 9.62241 12.8202 0.215076
1 3.63248 11.025 5.21148
1 7.92652 3.29604 13.1201
1 3.20175 8.41022 7.06004
1 0.28482 12.1369 5.00664
1 7.77792 11.8253 14.8762
1 0.282948 7.97509 9.75519
1 5.66009 1.75891 2.37602
1 11.7017 5.47719 14.2708
1 12.8938 13.4997 14.2425
1 10.9365 10.3157 7.60732
1 7.02465 0.995995 13.2615
1 0.209028 3.27147 15.2431
1 9.41136 13.2719 2.84498
1 2.36365 14.268 13.1808
1 13.6754 11.5986 5.69265
1 5.34086 11.1796 10.3264
1 14.1754 4.56404 14.8001
1 12.2886 6.2739 8.2383
1 7.89916 8.39537 14.937
1 9.82676 2.41066 0.171838
1 16.0839 0.713409 16.1439
1 11.693 0.611673 1.31777
1 9.05252 5.72931 6.061
1 4.86484 13.5276 8.89658
1 14.883 0.191038 3.26306
1 1.16745 15.0988 6.31283
1 14.5682 7.80933 4.47426
1 5.21444 5.71388 13.1386
1 3.79844 9.71955 14.4204
1 2.25536 1.50183 9.97063
1 10.7907 3.32909 2.46907
1 15.6927 10.1078 3.79949
1 6.0173 13.5649 14.4693
1 10.3537 14.658 4.86673
1 5.46861 14.324 11.0568
1 15.7172 2.01622 13.3404
1 11.2464 10.9601 10.6005
1 12.9253 7.60107 2.13769
1 6.03769 12.967 2.52488
1 0.209618 12.7211 10.263
1 1.86196 11.389 6.8005
1 7.82129 14.9215 13.541
1 2.0411 13.3036 3.95708
1 0.0611208 15.674 11.6941
1 14.3906 2.75954 11.5942
1 0.333491 3.55553 3.43056
1 15.0794 9.59334 14.3042
1 6.36954 4.3274 14.6834
1 12.9625 10.0053 4.10598
1 3.97358 16.156 11.4216
1 12.5519 0.718804 10.4232
1 12.8204 4.75985 5.32557
1 2.04132 6.87974 15.7452
1 4.94988 12.617 0.333619
1 0.0842103 5.84624 9.11775
1 4.69271 1.85372 8.77089
1 1.02056 15.2555 3.39929
1 8.10314 10.7128 5.78042
1 1.01572 8.82622 0.909412
1 3.8294 8.21472 4.59871
1 3.16884 5.76216 1.35275
1 3.63231 14.3575 7.00683
1 9.47027 4.32304 14.8914
1 2.91228 2.12813 2.59558
1 11.4302 11.5905 2.69241
1 4.3624 13.6318 4.87723
1 7.01679 8.70586 7.20137
1 7.60502 2.13053 4.72264
1 7.55295 10.1598 0.170015
1 6.04785 1.09343 10.687
1 9.22387 0.467664 8.43949
1 8.08413 3.60429 6.7021
1 10.4193 13.6768 13.015
1 5.01405 10.2108 7.64738
1 7.49813 2.55338 0.809157
1 6.83411 6.73272 5.76033
1 5.05172 16.2584 7.33375
1 3.05493 0.338823 13.7554
1 1.62925 4.96701 5.01023
1 3.58953 4.46655 11.5963
1 2.08019 0.436312 16.0662
1 3.41926 15.7353 1.72934
1 10.1313 6.38352 0.864109
1 12.6501 12.4739 7.6074
1 8.18449 0.0891816 10.6361
1 12.1943 3.25531 12.6582
1 9.39236 11.6687 12.6948
1 4.27682 6.8296 8.36377
1 4.95269 10.04 0.822477
1 12.4467 6.40981 10.5226
1 10.6776 5.1818 11.7235
1 8.85773 3.88598 10.5919
1 15.0389 5.00691 10.6101
1 3.24107 6.22745 3.7789
1 4.71688 8.47995 11.3791
1 14.8275 9.42554 6.83035
1 5.20583 0.908703 14.9362
1 7.9244 16.161 1.03952
1 11.349 10.4317 13.6496
1 5.46437 5.18682 4.20629
1 3.31168 10.6268 12.0439
1 3.17745 10.8702 2.62358
1 14.8939 14.2053 6.43738
1 9.39682 8.61149 7.66044
1 0.948923 12.4719 0.312655
1 6.31148 4.01835 8.17116
1 1.71998 13.4707 8.10769
1 13.6479 7.62797 13.7976
1 13.0832 9.03761 8.67675
1 9.51111 12.7653 8.96658
1 15.0307 1.9784 9.25897
1 4.06858 7.48016 14.7891
1 12.6078 2.89538 0.798099
1 11.1063 7.58315 13.1862
1 2.51926 3.80624 13.3874
1 1.43998 4.35893 1.56788
1 10.1045 8.02845 15.1565
1 1.57346 1.89159 12.2871
1 0.37747 1.02298 6.6589
1 15.0228 2.30962 2.01688
1 15.7006 11.0761 1.59834
1 5.85216 11.2023 4.65958
1 15.3499 6.59465 6.91967
