216
Atoms. Timestep: 8030
1 0.398704 13.538 14.3844
1 0.750787 11.0739 13.7489
1 5.99161 12.4057 7.01345
1 6.45917 6.58686 2.75178
1 15.3126 15.8196 14.1101
1 6.56216 7.97706 12.8618
1 5.46534 3.00339 4.01728
1 4.75306 15.9885 3.67429
1 13.8956 15.078 10.7685
1 14.8626 3.89899 5.5271
1 14.1929 8.56968 10.6802
1 2.37127 2.76135 16.1485
1 0.509399 3.83864 7.52088
1 12.8838 15.4052 2.86495
1 10.3985 16.1112 11.783
1 10.6 8.82426 4.89793
1 2.65592 6.30966 9.80596
1 12.7386 7.09355 5.88929
1 5.97042 3.65943 11.0224
1 14.9369 12.829 12.5472
1 2.3836 7.13036 12.2494
1 10.3071 5.54788 3.87701
1 5.03139 5.10419 6.87481
1 6.27092 7.4649 9.3689
1 8.2009 4.79961 1.67329
1 12.2266 13.3945 11.5288
1 10.7787 8.46165 10.2559
1 10.0162 9.64745 1.64095
1 15.5128 5.40547 0.644505
1 3.01265 3.79035 8.82989
1 1.13747 10.4925 11.3025
1 5.68166 9.21409 3.20769
1 13.5707 9.47879 0.870101
1 8.03136 13.9509 11.1015
1 8.61491 6.82085 11.7818
1 11.5539 13.9427 9.04677
1 6.09331 10.528 13.5298
1 0.863525 9.2436 7.70382
1 7.37189 10.4895 11.4112
1 11.4547 9.91547 16.0755
1 4.5742 12.7528 12.8144
1 9.06816 14.8245 15.5173
1 15.4416 8.03062 16.2418
1 13.1713 1.98701 14.8702
1 11.9279 3.94698 7.58535
1 10.8639 7.72868 2.75561
1 4.54611 3.17027 15.2587
1 8.67681 15.3121 6.56782
1 14.1086 14.7735 1.14945
1 13.6281 10.5363 12.3137
1 5.33578 4.402 1.29926
1 4.08358 1.50144 5.70697
1 9.73694 3.11899 8.33508
1 0.929133 7.4072 5.84345
1 12.5695 5.44067 0.649762
1 11.7251 12.1046 16.0494
1 0.208083 0.0540318 9.10613
1 3.09474 3.61119 6.32457
1 7.43299 5.4729 9.83267
1 13.0057 15.7717 15.1165
1 12.9692 15.8122 5.79986
1 14.5401 5.26765 2.86869
1 0.216107 14.8469 1.18541
1 6.96132 0.00746193 5.45637
1 7.34952 6.15783 16.1338
1 11.6376 0.105666 8.01857
1 13.1774 1.92685 7.59599
1 9.17442 1.22559 3.09781
1 1.97163 10.3522 15.792
1 8.14711 8.59463 4.15999
1 9.81659 6.19673 8.41587
1 5.59908 15.4612 0.347497
1 15.1207 14.4672 8.86283
1 1.12857 5.69673 13.5796
1 10.2513 1.8624 13.1173
1 1.75278 8.68845 3.21873
1 15.016 5.90027 13.0302
1 1.8166 1.34425 4.46027
1 12.5004 13.2328 3.94055
1 7.5441 14.9464 3.10778
1 2.37208 14.57 10.451
1 10.6634 0.247873 15.3248
1 13.7359 12.5004 1.07771
1 8.57204 8.70745 10.2703
1 0.224624 8.30835 12.2284
1 8.56295 13.0132 6.85522
1 8.19979 10.9263 2.72902
1 10.5408 11.4014 5.30381
1 2.88494 13.3225 1.65007
1 14.7777 1.19132 5.61838
1 13.9348 12.0011 9.79149
1 5.3591 7.5594 0.694639
1 9.62069 12.8201 0.21536
1 3.63113 11.0235 5.21276
1 7.92714 3.2954 13.1207
1 3.20416 8.40984 7.06074
1 0.28319 12.1384 5.00478
1 7.77823 11.8244 14.8764
1 0.282105 7.97877 9.75545
1 5.66103 1.75474 2.37423
1 11.7022 5.47937 14.2724
1 12.8935 13.4975 14.2435
1 10.9372 10.3176 7.60973
1 7.0221 0.995412 13.2622
1 0.208237 3.27191 15.2429
1 9.41204 13.2743 2.84453
1 2.36025 14.2688 13.1832
1 13.6753 11.5988 5.69313
1 5.3393 11.1779 10.3246
1 14.175 4.56202 14.8001
1 12.2874 6.27646 8.23783
1 7.89854 8.39426 14.9382
1 9.82331 2.41122 0.170394
1 16.0806 0.712152 16.1452
1 11.6923 0.609598 1.31871
1 9.05161 5.72736 6.05953
1 4.86431 13.5283 8.89611
1 14.8858 0.191887 3.26154
1 1.1627 15.0981 6.31242
1 14.5664 7.80772 4.47149
1 5.21114 5.71472 13.1399
1 3.79763 9.7214 14.417
1 2.25641 1.50201 9.96957
1 10.7871 3.33264 2.46766
1 15.6909 10.1076 3.7991
1 6.01272 13.566 14.4753
1 10.3535 14.6575 4.86873
1 5.46667 14.3225 11.0573
1 15.7148 2.01449 13.3406
1 11.2445 10.9593 10.5991
1 12.9301 7.60003 2.13763
1 6.03602 12.9697 2.52639
1 0.2076 12.7193 10.2646
1 1.86229 11.3874 6.79968
1 7.82269 14.9208 13.5407
1 2.04232 13.3026 3.95291
1 0.0623052 15.6741 11.6939
1 14.3897 2.76055 11.593
1 0.334744 3.55403 3.43239
1 15.0783 9.59303 14.3066
1 6.36965 4.32742 14.6822
1 12.9641 10.0062 4.10561
1 3.9744 16.1562 11.422
1 12.5506 0.717529 10.4223
1 12.8205 4.76125 5.32283
1 2.03878 6.88088 15.7454
1 4.95172 12.6181 0.333736
1 0.0870542 5.84698 9.11735
1 4.6928 1.85599 8.77063
1 1.02395 15.2574 3.39976
1 8.10238 10.7129 5.7777
1 1.01737 8.82443 0.907875
1 3.8306 8.21709 4.6015
1 3.17121 5.76045 1.35264
1 3.634 14.3571 7.00665
1 9.46856 4.32371 14.8917
1 2.91081 2.12814 2.59472
1 11.4301 11.59 2.69369
1 4.36056 13.6314 4.87751
1 7.01444 8.7076 7.20176
1 7.60751 2.13222 4.72524
1 7.55088 10.1605 0.166918
1 6.04441 1.09243 10.6888
1 9.22559 0.469823 8.43869
1 8.08387 3.60538 6.70234
1 10.4208 13.6784 13.0174
1 5.01561 10.2114 7.64868
1 7.49837 2.55302 0.806584
1 6.83441 6.73485 5.7631
1 5.05068 16.2595 7.33373
1 3.05487 0.336841 13.7555
1 1.62858 4.96681 5.00927
1 3.58853 4.46534 11.5972
1 2.08049 0.438236 16.0673
1 3.4197 15.7338 1.72813
1 10.1313 6.38141 0.864955
1 12.6492 12.4709 7.60421
1 8.18561 0.0885016 10.6374
1 12.195 3.25433 12.6563
1 9.39254 11.669 12.6945
1 4.2763 6.8289 8.36174
1 4.95447 10.0401 0.821497
1 12.4479 6.41473 10.5264
1 10.6761 5.18 11.7219
1 8.85917 3.88458 10.592
1 15.0334 5.00927 10.6135
1 3.24117 6.22798 3.77959
1 4.71581 8.47817 11.3791
1 14.8256 9.42775 6.8309
1 5.20964 0.910766 14.9332
1 7.92264 16.1609 1.03861
1 11.348 10.4307 13.6494
1 5.46331 5.18826 4.2071
1 3.31015 10.6254 12.044
1 3.17874 10.8696 2.62368
1 14.8971 14.2036 6.43716
1 9.39576 8.60803 7.66183
1 0.94945 12.474 0.311591
1 6.31294 4.0175 8.1722
1 1.71958 13.4711 8.10941
1 13.6494 7.62968 13.7951
1 13.0825 9.04075 8.6744
1 9.51204 12.7628 8.96526
1 15.031 1.97964 9.25844
1 4.06889 7.47659 14.7889
1 12.6107 2.89708 0.797019
1 11.1053 7.5813 13.1836
1 2.51912 3.80249 13.3872
1 1.44188 4.35548 1.56591
1 10.1045 8.02845 15.1574
1 1.5734 1.89234 12.2878
1 0.37992 1.02445 6.66039
1 15.0234 2.30945 2.01538
1 15.6995 11.0787 1.59805
1 5.85602 11.2043 4.65762
1 15.35 6.59605 6.91892
