216
Atoms. Timestep: 8024
1 0.378212 13.5497 14.389
1 0.734714 11.0929 13.7424
1 5.97512 12.4284 7.03888
1 6.43513 6.59516 2.74654
1 15.3169 15.815 14.0969
1 6.53794 7.98173 12.8671
1 5.45443 2.9939 4.00601
1 4.74433 16.0095 3.67224
1 13.8853 15.0597 10.7536
1 14.8641 3.88627 5.51943
1 14.2225 8.57592 10.6639
1 2.37849 2.7646 16.1273
1 0.5199 3.84016 7.51926
1 12.8969 15.4067 2.84795
1 10.4105 16.1147 11.7817
1 10.5959 8.80613 4.89376
1 2.65186 6.32632 9.79549
1 12.7518 7.09879 5.86946
1 5.98607 3.68013 11.0194
1 14.9337 12.8382 12.556
1 2.387 7.12552 12.2506
1 10.2826 5.56302 3.89722
1 5.05093 5.09822 6.87941
1 6.25606 7.46233 9.39057
1 8.18103 4.80585 1.67151
1 12.2007 13.4088 11.5574
1 10.7666 8.46389 10.2527
1 10.0085 9.6517 1.63807
1 15.4956 5.4101 0.662331
1 3.0168 3.80414 8.82233
1 1.13131 10.4931 11.321
1 5.68725 9.20737 3.18828
1 13.5529 9.4801 0.862052
1 8.01607 13.9728 11.1028
1 8.63012 6.81937 11.7854
1 11.5525 13.9463 9.04322
1 6.09647 10.514 13.5146
1 0.876382 9.22957 7.70001
1 7.36025 10.4939 11.4221
1 11.4369 9.93013 16.0931
1 4.57279 12.7337 12.801
1 9.06715 14.8149 15.5224
1 15.4367 8.03947 16.2403
1 13.1674 1.96464 14.874
1 11.9106 3.96167 7.57782
1 10.8492 7.71336 2.77146
1 4.57966 3.16491 15.2611
1 8.68241 15.3207 6.57333
1 14.0987 14.7692 1.16425
1 13.6366 10.5554 12.3287
1 5.34875 4.41016 1.29121
1 4.09107 1.50537 5.71148
1 9.73221 3.10974 8.32613
1 0.934813 7.39484 5.83152
1 12.5796 5.43064 0.637893
1 11.7135 12.1013 16.06
1 0.191763 0.0643971 9.10921
1 3.08898 3.61049 6.3072
1 7.42084 5.44674 9.82648
1 12.9996 15.8025 15.1281
1 12.9787 15.7919 5.8204
1 14.5221 5.26813 2.86001
1 0.223967 14.8369 1.18813
1 6.95382 0.0119134 5.45549
1 7.36586 6.15005 16.1353
1 11.6188 0.0951341 8.01151
1 13.1698 1.93677 7.59448
1 9.16023 1.22721 3.09032
1 1.97663 10.3362 15.8056
1 8.14994 8.59131 4.1542
1 9.79822 6.18865 8.42981
1 5.5913 15.4771 0.341554
1 15.1143 14.4646 8.86539
1 1.13687 5.68158 13.5791
1 10.253 1.8694 13.1091
1 1.75458 8.69116 3.2182
1 15.0243 5.89912 13.013
1 1.80799 1.32607 4.46584
1 12.4897 13.2339 3.95752
1 7.55602 14.9499 3.10126
1 2.38474 14.5988 10.4539
1 10.6671 0.258217 15.3257
1 13.7427 12.5089 1.06517
1 8.59168 8.69167 10.257
1 0.225101 8.2996 12.2244
1 8.57035 13.0069 6.84196
1 8.20156 10.9039 2.72634
1 10.5249 11.3931 5.29538
1 2.86914 13.3193 1.6577
1 14.7919 1.20349 5.61693
1 13.9325 11.9873 9.77748
1 5.37502 7.56724 0.697563
1 9.63113 12.8201 0.21557
1 3.63904 11.0323 5.2031
1 7.92359 3.29848 13.1136
1 3.18761 8.41472 7.05375
1 0.292754 12.1261 5.02274
1 7.77775 11.8337 14.8731
1 0.28906 7.95428 9.75256
1 5.65255 1.78236 2.38058
1 11.6965 5.45853 14.2634
1 12.8952 13.5139 14.2363
1 10.9344 10.3074 7.5946
1 7.04129 0.999601 13.2568
1 0.212486 3.26935 15.2436
1 9.4057 13.2542 2.84763
1 2.38691 14.2615 13.1644
1 13.6808 11.5993 5.68911
1 5.34928 11.1912 10.3362
1 14.1782 4.57626 14.8001
1 12.2964 6.25774 8.24019
1 7.90075 8.40087 14.9304
1 9.8465 2.40924 0.17898
1 16.1029 0.72314 16.1374
1 11.6973 0.623489 1.31519
1 9.05731 5.74221 6.07107
1 4.86779 13.5207 8.90236
1 14.8675 0.190602 3.27822
1 1.19528 15.1021 6.31254
1 14.5801 7.81926 4.48892
1 5.23567 5.71104 13.1303
1 3.80542 9.70849 14.4432
1 2.24861 1.49861 9.97818
1 10.8103 3.30688 2.48095
1 15.7089 10.1099 3.80265
1 6.04912 13.558 14.4321
1 10.3577 14.6603 4.85231
1 5.48441 14.3309 11.0543
1 15.7322 2.02608 13.3389
1 11.2592 10.967 10.609
1 12.8989 7.60667 2.13968
1 6.05045 12.9487 2.51743
1 0.222989 12.7323 10.2544
1 1.8574 11.3994 6.80655
1 7.81144 14.9257 13.5418
1 2.03434 13.31 3.98656
1 0.0538504 15.6719 11.6969
1 14.3945 2.75272 11.5992
1 0.324345 3.56504 3.42164
1 15.087 9.59587 14.2861
1 6.37198 4.3308 14.6906
1 12.9508 9.9961 4.10619
1 3.96916 16.1585 11.4177
1 12.5603 0.728106 10.429
1 12.8136 4.75193 5.34257
1 2.05639 6.87115 15.7435
1 4.93786 12.6105 0.334579
1 0.067782 5.83898 9.11592
1 4.69424 1.83961 8.77338
1 0.996899 15.2489 3.398
1 8.10805 10.7096 5.79755
1 1.00674 8.83788 0.919974
1 3.82241 8.203 4.58148
1 3.15596 5.77586 1.35433
1 3.62325 14.3631 7.00683
1 9.48263 4.31892 14.8914
1 2.92438 2.12789 2.59734
1 11.4308 11.5922 2.68078
1 4.37444 13.6364 4.87339
1 7.03105 8.69424 7.1998
1 7.58958 2.12017 4.70751
1 7.56523 10.1555 0.193889
1 6.06931 1.10255 10.6772
1 9.21376 0.455789 8.44434
1 8.0869 3.59673 6.69923
1 10.4081 13.6709 12.9994
1 5.00391 10.206 7.64053
1 7.49699 2.55418 0.825709
1 6.83544 6.7196 5.74235
1 5.06014 16.2517 7.33171
1 3.05502 0.351995 13.7544
1 1.63243 4.96995 5.01772
1 3.59959 4.47716 11.5864
1 2.08161 0.423395 16.0585
1 3.41521 15.7452 1.73539
1 10.1318 6.39643 0.85485
1 12.6564 12.4923 7.63041
1 8.1801 0.091547 10.6259
1 12.1901 3.26104 12.6724
1 9.38926 11.6646 12.6965
1 4.28082 6.83391 8.37507
1 4.94112 10.0412 0.827557
1 12.4419 6.37728 10.4983
1 10.6884 5.19284 11.7321
1 8.85318 3.89286 10.5922
1 15.0691 4.98994 10.5932
1 3.24079 6.21896 3.7722
1 4.72271 8.49137 11.3775
1 14.8378 9.4105 6.82626
1 5.17975 0.894373 14.9542
1 7.93525 16.1622 1.04509
1 11.3572 10.4381 13.6466
1 5.46667 5.18017 4.20314
1 3.32481 10.6353 12.0433
1 3.16839 10.8721 2.62293
1 14.8727 14.2145 6.43767
1 9.40236 8.63169 7.65041
1 0.946267 12.4602 0.321391
1 6.3024 4.01906 8.16593
1 1.72108 13.4653 8.09812
1 13.6382 7.61815 13.8128
1 13.0867 9.01805 8.68911
1 9.50547 12.7805 8.97911
1 15.0277 1.97224 9.26175
1 4.06748 7.50181 14.7887
1 12.5943 2.88467 0.807585
1 11.114 7.5993 13.1998
1 2.52014 3.829 13.3915
1 1.42595 4.38169 1.57934
1 10.1037 8.02759 15.1536
1 1.57523 1.88525 12.2839
1 0.364941 1.01528 6.65176
1 15.0173 2.30897 2.02392
1 15.7064 11.0566 1.59902
1 5.8303 11.1903 4.6686
1 15.3468 6.58127 6.92701
