216
Atoms. Timestep: 8020
1 0.358637 13.5626 14.3924
1 0.717904 11.1093 13.7358
1 5.96247 12.4508 7.06402
1 6.41731 6.60618 2.74186
1 15.3207 15.8102 14.0847
1 6.51679 7.98218 12.8724
1 5.44282 2.98367 4.00687
1 4.73933 16.0274 3.67407
1 13.8755 15.043 10.7423
1 14.8727 3.87191 5.51403
1 14.2479 8.58099 10.6524
1 2.38668 2.76788 16.111
1 0.527573 3.83852 7.51752
1 12.903 15.4086 2.83781
1 10.4227 16.1182 11.7802
1 10.5953 8.78636 4.89362
1 2.64524 6.33849 9.79007
1 12.7613 7.10616 5.85117
1 5.99839 3.69768 11.0201
1 14.9302 12.8485 12.5649
1 2.39636 7.12282 12.2498
1 10.2605 5.57395 3.91677
1 5.06458 5.09734 6.88105
1 6.24176 7.4652 9.41301
1 8.16872 4.81271 1.6743
1 12.1775 13.421 11.5807
1 10.7647 8.46681 10.2525
1 9.99993 9.65614 1.63642
1 15.4817 5.41774 0.677187
1 3.01762 3.81732 8.81677
1 1.12374 10.4959 11.3386
1 5.6918 9.20081 3.17171
1 13.5384 9.48078 0.854094
1 8.00304 13.993 11.1033
1 8.64271 6.81941 11.7904
1 11.5496 13.9539 9.0404
1 6.10036 10.5006 13.502
1 0.88846 9.21845 7.69727
1 7.35227 10.499 11.4321
1 11.4218 9.93914 16.1096
1 4.56881 12.7185 12.7853
1 9.06694 14.8088 15.5281
1 15.427 8.0442 16.2392
1 13.1661 1.94763 14.8735
1 11.894 3.97437 7.56866
1 10.8304 7.69819 2.78754
1 4.60843 3.15782 15.264
1 8.68977 15.3297 6.57823
1 14.0902 14.7618 1.16601
1 13.6427 10.5733 12.3423
1 5.35452 4.41691 1.28014
1 4.09697 1.50937 5.70984
1 9.72626 3.09843 8.3188
1 0.942586 7.38149 5.81406
1 12.5868 5.42102 0.627214
1 11.7059 12.104 16.0675
1 0.180455 0.0779838 9.11194
1 3.08505 3.61116 6.29196
1 7.40962 5.42592 9.81779
1 12.9984 15.8271 15.1417
1 12.9859 15.7673 5.83814
1 14.5026 5.27104 2.85496
1 0.23163 14.8261 1.18851
1 6.94347 0.0147565 5.4531
1 7.38213 6.14432 16.1296
1 11.6001 0.0816507 8.00824
1 13.166 1.94799 7.5947
1 9.14885 1.23103 3.07962
1 1.98355 10.324 15.8184
1 8.15082 8.58744 4.14863
1 9.77924 6.18148 8.44227
1 5.5837 15.4912 0.33649
1 15.1082 14.4588 8.86473
1 1.14443 5.66651 13.5853
1 10.254 1.87426 13.1056
1 1.75238 8.69809 3.21953
1 15.035 5.89718 12.9926
1 1.79815 1.30684 4.47296
1 12.4807 13.2391 3.97637
1 7.56521 14.9529 3.09663
1 2.39221 14.626 10.4561
1 10.6666 0.26931 15.3223
1 13.7464 12.5154 1.05645
1 8.60185 8.67652 10.2434
1 0.224697 8.29353 12.223
1 8.57579 12.9996 6.8308
1 8.20054 10.8859 2.72378
1 10.508 11.3874 5.28948
1 2.85515 13.3129 1.66153
1 14.799 1.21932 5.61226
1 13.9288 11.9696 9.76342
1 5.38846 7.5728 0.696023
1 9.63693 12.8196 0.219056
1 3.64268 11.036 5.19435
1 7.92199 3.29907 13.1043
1 3.17488 8.42186 7.04491
1 0.297595 12.1138 5.04468
1 7.77995 11.8445 14.868
1 0.296507 7.93644 9.74849
1 5.6429 1.80207 2.37578
1 11.6893 5.43347 14.2586
1 12.8959 13.529 14.23
1 10.9366 10.3042 7.58489
1 7.0585 1.00316 13.2521
1 0.213888 3.26826 15.2435
1 9.39815 13.2328 2.8501
1 2.41252 14.2526 13.1462
1 13.6919 11.6031 5.68491
1 5.35601 11.2037 10.3432
1 14.1814 4.58773 14.7999
1 12.3045 6.24155 8.24049
1 7.89937 8.40457 14.9252
1 9.86326 2.41081 0.183512
1 16.1191 0.73511 16.1329
1 11.7013 0.633164 1.31719
1 9.0608 5.75598 6.08241
1 4.87005 13.5109 8.91194
1 14.8556 0.196599 3.30077
1 1.22055 15.1044 6.30867
1 14.5935 7.82912 4.49987
1 5.25773 5.71124 13.1219
1 3.81486 9.69859 14.4679
1 2.24161 1.49278 9.98669
1 10.8267 3.28502 2.49742
1 15.7306 10.1126 3.80687
1 6.08464 13.5515 14.3957
1 10.3648 14.6614 4.83548
1 5.50487 14.335 11.0527
1 15.7475 2.03466 13.3364
1 11.2732 10.9756 10.6168
1 12.878 7.61114 2.14381
1 6.06631 12.9279 2.51254
1 0.237271 12.7438 10.2474
1 1.84984 11.4103 6.81378
1 7.8004 14.9308 13.5409
1 2.02872 13.3164 4.02033
1 0.0467247 15.6673 11.7008
1 14.3959 2.74525 11.601
1 0.313607 3.57456 3.41606
1 15.0957 9.59903 14.2639
1 6.37893 4.33884 14.697
1 12.9366 9.9823 4.10375
1 3.96619 16.1662 11.4111
1 12.5692 0.739096 10.4352
1 12.7992 4.74507 5.35929
1 2.07023 6.86106 15.7419
1 4.92531 12.6046 0.337525
1 0.0533486 5.82836 9.10789
1 4.6983 1.82568 8.77717
1 0.96992 15.2487 3.39866
1 8.11268 10.7038 5.8147
1 0.999279 8.84993 0.931786
1 3.81618 8.19543 4.56451
1 3.14582 5.79336 1.35708
1 3.6165 14.3728 7.00534
1 9.49707 4.31477 14.8935
1 2.93941 2.12779 2.59438
1 11.4324 11.5925 2.66467
1 4.38736 13.6444 4.86693
1 7.04448 8.68161 7.19935
1 7.57443 2.11013 4.69406
1 7.57645 10.1509 0.223059
1 6.09051 1.11548 10.6694
1 9.2045 0.446134 8.44892
1 8.09105 3.58827 6.69444
1 10.3935 13.6706 12.9838
1 4.99343 10.2004 7.63519
1 7.49668 2.553 0.842919
1 6.841 6.70679 5.72374
1 5.07102 16.2451 7.32697
1 3.05468 0.366003 13.7536
1 1.63424 4.97501 5.02683
1 3.6144 4.49173 11.571
1 2.08736 0.409346 16.0502
1 3.40941 15.7562 1.7394
1 10.1329 6.40887 0.84044
1 12.664 12.5102 7.65711
1 8.17931 0.0914116 10.6125
1 12.1861 3.26604 12.6899
1 9.38357 11.6572 12.6981
1 4.28577 6.83828 8.38425
1 4.92886 10.0447 0.831249
1 12.4408 6.34256 10.4745
1 10.7009 5.20381 11.7391
1 8.8549 3.89726 10.5936
1 15.0933 4.96963 10.582
1 3.24108 6.20366 3.76257
1 4.72731 8.503 11.3735
1 14.8463 9.39387 6.82142
1 5.15114 0.878349 14.9707
1 7.94576 16.1639 1.05032
1 11.3675 10.4443 13.638
1 5.46331 5.17636 4.20247
1 3.34212 10.6429 12.0427
1 3.15796 10.8711 2.62226
1 14.8493 14.2221 6.4367
1 9.40644 8.64967 7.63868
1 0.944335 12.4502 0.332614
1 6.29374 4.01337 8.16237
1 1.72029 13.4567 8.09053
1 13.6276 7.60941 13.8269
1 13.0888 8.99851 8.69831
1 9.49992 12.7951 8.99713
1 15.0233 1.96823 9.26383
1 4.06759 7.52211 14.7858
1 12.5874 2.87415 0.820298
1 11.1234 7.62124 13.2094
1 2.52141 3.85053 13.399
1 1.40922 4.40575 1.5893
1 10.1025 8.02572 15.1547
1 1.57895 1.87708 12.2824
1 0.356313 1.00947 6.6478
1 15.009 2.30595 2.02798
1 15.7106 11.0329 1.59829
1 5.81191 11.1787 4.67367
1 15.3409 6.56182 6.93772
