216
Atoms. Timestep: 8009
1 0.295107 13.6152 14.4014
1 0.655692 11.1605 13.7131
1 5.93398 12.5279 7.14995
1 6.37574 6.65482 2.72638
1 15.3323 15.7943 14.0446
1 6.45236 7.96436 12.8915
1 5.39884 2.95001 4.0607
1 4.73561 16.0767 3.69669
1 13.8409 14.9866 10.7144
1 14.9279 3.81531 5.50191
1 14.3245 8.59706 10.6277
1 2.42196 2.78161 16.0725
1 0.545231 3.81797 7.51056
1 12.8993 15.4164 2.82804
1 10.4676 16.1326 11.7716
1 10.6082 8.70908 4.91108
1 2.61169 6.36672 9.78922
1 12.7806 7.14003 5.78991
1 6.02866 3.74809 11.0396
1 14.9143 12.8923 12.5935
1 2.45368 7.12099 12.2415
1 10.1883 5.59425 3.98345
1 5.08832 5.11612 6.87477
1 6.19414 7.49548 9.49949
1 8.15387 4.84078 1.70413
1 12.1061 13.4545 11.6435
1 10.8029 8.47922 10.2637
1 9.9672 9.66908 1.63822
1 15.4447 5.45873 0.718927
1 3.00976 3.86121 8.80356
1 1.09299 10.516 11.4017
1 5.70315 9.17967 3.12429
1 13.4982 9.48038 0.826655
1 7.96653 14.0616 11.1017
1 8.67879 6.82457 11.8152
1 11.5324 13.9986 9.03532
1 6.11976 10.4543 13.4723
1 0.927987 9.18853 7.69206
1 7.34172 10.5187 11.4614
1 11.3765 9.94856 16.1595
1 4.54691 12.6836 12.7214
1 9.06958 14.8031 15.5497
1 15.3751 8.04619 16.2367
1 13.1747 1.91188 14.856
1 11.8347 4.00986 7.52938
1 10.7446 7.64187 2.84324
1 4.69467 3.12432 15.2789
1 8.72288 15.3626 6.59018
1 14.0693 14.7263 1.12093
1 13.6579 10.6355 12.3854
1 5.3451 4.4378 1.22972
1 4.10983 1.52361 5.68211
1 9.69935 3.04769 8.29928
1 0.974195 7.32743 5.72954
1 12.5991 5.38657 0.592913
1 11.6963 12.1371 16.0799
1 0.156904 0.138633 9.11994
1 3.08016 3.61933 6.24549
1 7.37017 5.37347 9.77472
1 13.014 15.8893 15.1994
1 13.0018 15.6663 5.89381
1 14.4239 5.29142 2.85373
1 0.255045 14.7866 1.18036
1 6.8978 16.2866 5.43896
1 7.44349 6.13278 16.0809
1 11.5347 16.2933 8.01002
1 13.164 1.99059 7.60122
1 9.11796 1.25483 3.02981
1 2.01545 10.2952 15.8593
1 8.14545 8.5721 4.13059
1 9.70921 6.15975 8.48382
1 5.55729 15.5326 0.323452
1 15.0896 14.4245 8.85024
1 1.16776 5.6172 13.6329
1 10.2534 1.88339 13.1103
1 1.72898 8.74006 3.23274
1 15.0845 5.88868 12.9049
1 1.75936 1.2362 4.50063
1 12.4527 13.2709 4.05433
1 7.58784 14.9594 3.08859
1 2.39843 14.7184 10.4598
1 10.6443 0.311383 15.2921
1 13.7493 12.5275 1.03743
1 8.59916 8.62543 10.1926
1 0.221283 8.27944 12.2288
1 8.58782 12.9718 6.80092
1 8.18372 10.8371 2.7201
1 10.4448 11.3749 5.27356
1 2.81092 13.2781 1.66598
1 14.7926 1.29051 5.58452
1 13.9113 11.8896 9.71667
1 5.4295 7.58361 0.668276
1 9.63679 12.8163 0.244815
1 3.63538 11.0311 5.16725
1 7.92463 3.29346 13.0636
1 3.14595 8.45481 7.00481
1 0.295015 12.0681 5.14035
1 7.79982 11.8827 14.8447
1 0.328748 7.89666 9.72781
1 5.60334 1.84423 2.30981
1 11.6564 5.32911 14.2554
1 12.8958 13.5808 14.2117
1 10.9689 10.3218 7.57053
1 7.11074 1.01363 13.2393
1 0.206442 3.27204 15.2426
1 9.36466 13.1488 2.85719
1 2.50007 14.2138 13.0841
1 13.752 11.6287 5.6687
1 5.36923 11.2474 10.347
1 14.1952 4.61789 14.7983
1 12.3303 6.19436 8.23055
1 7.88042 8.40835 14.9172
1 9.89492 2.43292 0.182781
1 16.152 0.781287 16.1294
1 11.7135 0.646326 1.34817
1 9.06366 5.80113 6.12452
1 4.86978 13.4687 8.96241
1 14.8365 0.245587 3.40516
1 1.28379 15.1068 6.28096
1 14.6435 7.86108 4.51342
1 5.32937 5.72605 13.0965
1 3.85681 9.67988 14.552
1 2.22005 1.46492 10.0138
1 10.8596 3.22335 2.57646
1 15.8237 10.1235 3.82646
1 6.20535 13.5316 14.2913
1 10.3998 14.6592 4.77275
1 5.58774 14.3366 11.0536
1 15.7947 2.05375 13.3239
1 11.3238 11.0116 10.6356
1 12.8408 7.61962 2.16776
1 6.13165 12.8502 2.51059
1 0.284021 12.7821 10.2339
1 1.81388 11.4419 6.84214
1 7.76499 14.9525 13.5285
1 2.01689 13.3384 4.14334
1 16.2957 15.6391 11.7166
1 14.3867 2.71894 11.5934
1 0.273847 3.60222 3.41642
1 15.1279 9.60947 14.1746
1 6.4261 4.38673 14.7087
1 12.8805 9.9198 4.08445
1 3.97076 -0.0548834 11.3789
1 12.6003 0.780065 10.4552
1 12.7214 4.72805 5.40613
1 2.10399 6.82718 15.736
1 4.88594 12.5936 0.354762
1 0.0202995 5.77953 9.04967
1 4.7208 1.78466 8.79503
1 0.869925 15.2782 3.40749
1 8.11928 10.6737 5.8656
1 0.981266 8.88561 0.973439
1 3.80045 8.19207 4.51198
1 3.13076 5.86399 1.37058
1 3.61038 14.4234 6.99264
1 9.54939 4.30109 14.9106
1 2.98976 2.13215 2.56086
1 11.445 11.5883 2.59904
1 4.43356 13.686 4.835
1 7.07678 8.63691 7.20461
1 7.53141 2.08194 4.66265
1 7.60228 10.1367 0.331366
1 6.15287 1.17474 10.6561
1 9.18064 0.429484 8.4607
1 8.1087 3.55886 6.66897
1 10.3257 13.6985 12.9376
1 4.96139 10.1793 7.6244
1 7.50278 2.53991 0.899207
1 6.88004 6.67039 5.6658
1 5.11608 16.2257 7.30004
1 3.05065 0.409896 13.7494
1 1.63149 5.00005 5.05955
1 3.68038 4.555 11.4996
1 2.12507 0.360776 16.0232
1 3.38203 15.793 1.74129
1 10.1402 6.44328 0.771764
1 12.697 12.5615 7.75441
1 8.197 0.0785629 10.5577
1 12.1769 3.27521 12.7601
1 9.35373 11.6182 12.7031
1 4.3039 6.85338 8.39851
1 4.88721 10.0686 0.835554
1 12.4578 6.22701 10.4076
1 10.7458 5.23918 11.7506
1 8.89661 3.89942 10.6041
1 15.1354 4.88734 10.5782
1 3.24597 6.12439 3.72099
1 4.73315 8.53798 11.348
1 14.8637 9.33493 6.80344
1 5.05663 0.823554 15.009
1 7.97455 16.1707 1.06198
1 11.4086 10.4619 13.5877
1 5.42399 5.17587 4.21094
1 3.40908 10.659 12.042
1 3.11816 10.8545 2.61981
1 14.7694 14.2345 6.42943
1 9.41288 8.68967 7.59585
1 0.940271 12.426 0.376032
1 6.2713 3.95994 8.15824
1 1.70808 13.414 8.08099
1 13.5923 7.58566 13.8679
1 13.0873 8.93801 8.70975
1 9.48162 12.8382 9.0786
1 15.0008 1.96889 9.26671
1 4.07507 7.57114 14.7647
1 12.6045 2.84626 0.872247
1 11.162 7.71603 13.218
1 2.53331 3.90618 13.4342
1 1.34488 4.48286 1.60885
1 10.0973 8.01608 15.1776
1 1.59999 1.84707 12.2881
1 0.350365 1.00092 6.65403
1 14.9697 2.28408 2.02621
1 15.7127 10.9395 1.58939
1 5.77757 11.1442 4.67233
1 15.3092 6.47307 6.98524
