216
Atoms. Timestep: 8028
1 0.393134 13.541 14.3858
1 0.746635 11.0794 13.7472
1 5.98664 12.4117 7.02025
1 6.45175 6.58864 2.75029
1 15.3138 15.8184 14.1064
1 6.55521 7.97894 12.8632
1 5.46253 3.00107 4.01243
1 4.75013 15.9946 3.67314
1 13.8927 15.0729 10.764
1 14.8618 3.89587 5.52468
1 14.2015 8.57155 10.6751
1 2.37307 2.76224 16.1421
1 0.512658 3.83954 7.52046
1 12.8884 15.4055 2.85934
1 10.4017 16.1122 11.7827
1 10.5983 8.81969 4.89618
1 2.65524 6.31483 9.80236
1 12.7427 7.09459 5.88375
1 5.97509 3.66544 11.021
1 14.9361 12.8313 12.5495
1 2.38357 7.12872 12.25
1 10.3001 5.55257 3.88248
1 5.03749 5.10183 6.87649
1 6.26689 7.46333 9.37458
1 8.19442 4.80117 1.67211
1 12.2193 13.3986 11.5372
1 10.7739 8.46213 10.2545
1 10.0143 9.64851 1.64002
1 15.5077 5.40624 0.649726
1 3.01431 3.79412 8.82755
1 1.13607 10.4923 11.3076
1 5.68331 9.2123 3.20208
1 13.5654 9.47924 0.867947
1 8.02694 13.9571 11.102
1 8.61939 6.8202 11.7825
1 11.5537 13.943 9.04573
1 6.09406 10.5242 13.5254
1 0.867073 9.23939 7.70265
1 7.36825 10.4906 11.4142
1 11.4495 9.92025 16.0803
1 4.57425 12.7471 12.8112
1 9.06777 14.8214 15.5186
1 15.4411 8.03365 16.2413
1 13.1699 1.98025 14.8719
1 11.9231 3.95119 7.5836
1 10.8606 7.72456 2.75977
1 4.55581 3.1691 15.2593
1 8.67801 15.3143 6.56936
1 14.1058 14.7728 1.15542
1 13.6308 10.5416 12.3179
1 5.34034 4.40443 1.2976
1 4.08582 1.50248 5.70917
1 9.73587 3.11683 8.33245
1 0.930278 7.40403 5.84115
1 12.5727 5.43792 0.646402
1 11.7214 12.1028 16.0527
1 0.202916 0.0562726 9.107
1 3.09294 3.61079 6.31959
1 7.42957 5.46511 9.83139
1 13.0033 15.7809 15.1193
1 12.9721 15.8075 5.80581
1 14.5355 5.26739 2.86583
1 0.218194 14.8443 1.1865
1 6.9598 0.00887641 5.45638
1 7.35392 6.15545 16.1353
1 11.6326 0.103339 8.01607
1 13.1747 1.92926 7.5953
1 9.17018 1.22568 3.09634
1 1.97266 10.3474 15.7957
1 8.14816 8.59384 4.15842
1 9.8118 6.19444 8.41985
1 5.59697 15.4657 0.345788
1 15.1189 14.467 8.86402
1 1.13088 5.69272 13.5784
1 10.2519 1.86461 13.1144
1 1.7539 8.68851 3.21829
1 15.0178 5.9001 13.0261
1 1.81451 1.33959 4.46147
1 12.4973 13.2325 3.9448
1 7.54771 14.9474 3.10575
1 2.37627 14.5779 10.4519
1 10.665 0.250483 15.3257
1 13.7382 12.5029 1.07373
1 8.57872 8.70317 10.2668
1 0.224904 8.30557 12.2269
1 8.56523 13.0117 6.85137
1 8.20068 10.9197 2.72834
1 10.5368 11.3987 5.30112
1 2.88043 13.3221 1.65276
1 14.7825 1.19398 5.6185
1 13.9344 11.9981 9.78781
1 5.36376 7.56185 0.696079
1 9.62418 12.8202 0.214899
1 3.63386 11.0266 5.21005
1 7.92589 3.29664 13.1192
1 3.19916 8.41076 7.05916
1 0.286477 12.1351 5.00895
1 7.77768 11.8266 14.8758
1 0.283921 7.97118 9.75485
1 5.65896 1.76334 2.37761
1 11.7009 5.4745 14.2693
1 12.8941 13.5021 14.2415
1 10.9358 10.3138 7.60482
1 7.0275 0.996632 13.2607
1 0.209809 3.27102 15.2433
1 9.41053 13.2691 2.84546
1 2.36751 14.2671 13.1781
1 13.6759 11.5984 5.69209
1 5.34249 11.1816 10.3283
1 14.1759 4.56624 14.8002
1 12.2899 6.27108 8.23875
1 7.8997 8.39651 14.9357
1 9.83044 2.41017 0.173313
1 16.0875 0.714904 16.1426
1 11.6938 0.613893 1.31693
1 9.05347 5.73149 6.06266
1 4.8654 13.5267 8.89727
1 14.88 0.190396 3.26507
1 1.17256 15.0994 6.3131
1 14.5702 7.81109 4.47716
1 5.21809 5.71311 13.1371
1 3.79945 9.71754 14.4243
1 2.25421 1.50151 9.97185
1 10.7944 3.32518 2.4708
1 15.6951 10.1081 3.79996
1 6.02253 13.5637 14.4627
1 10.3541 14.6585 4.86441
1 5.47096 14.3255 11.0563
1 15.7198 2.01807 13.3403
1 11.2486 10.9612 10.6021
1 12.9202 7.60216 2.13785
1 6.03966 12.964 2.52334
1 0.211879 12.723 10.2614
1 1.86144 11.3907 6.80145
1 7.81969 14.9221 13.5413
1 2.03981 13.3048 3.96187
1 0.0598289 15.6739 11.6945
1 14.3915 2.7584 11.5954
1 0.332034 3.5572 3.42871
1 15.0806 9.59371 14.3013
1 6.36959 4.32759 14.6847
1 12.9607 10.0041 4.10626
1 3.9727 16.1559 11.4212
1 12.5533 0.720283 10.4241
1 12.8199 4.75836 5.32858
1 2.04406 6.87839 15.7448
1 4.94783 12.6159 0.333596
1 0.0811646 5.84527 9.11794
1 4.69273 1.85123 8.77121
1 1.01669 15.2538 3.39888
1 8.10399 10.7125 5.78342
1 1.014 8.82821 0.911156
1 3.8281 8.2123 4.59565
1 3.16635 5.76422 1.35292
1 3.63053 14.3581 7.00696
1 9.47224 4.32231 14.8912
1 2.91409 2.1281 2.5963
1 11.4302 11.5909 2.69079
1 4.36445 13.6323 4.87679
1 7.01934 8.7039 7.201
1 7.6023 2.12869 4.71984
1 7.55518 10.1591 0.173695
1 6.05162 1.0947 10.6851
1 9.22202 0.465389 8.44037
1 8.08448 3.60305 6.70175
1 10.4176 13.6753 13.0123
1 5.0123 10.21 7.64604
1 7.49788 2.5537 0.812009
1 6.83398 6.7304 5.75724
1 5.05298 16.2572 7.33364
1 3.05498 0.341049 13.7552
1 1.62992 4.96734 5.01138
1 3.59086 4.46806 11.5951
1 2.08006 0.434145 16.0649
1 3.4187 15.7369 1.73058
1 10.1313 6.38583 0.862942
1 12.6512 12.4772 7.61109
1 8.18342 0.0898158 10.6346
1 12.1936 3.25637 12.6604
1 9.39205 11.6683 12.6951
1 4.27743 6.83036 8.36592
1 4.95072 10.04 0.82349
1 12.4455 6.40431 10.5183
1 10.6793 5.18375 11.7251
1 8.85641 3.88741 10.5919
1 15.0447 5.0042 10.6067
1 3.24097 6.22656 3.77799
1 4.718 8.48193 11.379
1 14.8294 9.42305 6.8297
1 5.2015 0.906349 14.9395
1 7.92633 16.1611 1.04051
1 11.3503 10.4329 13.6496
1 5.46527 5.18538 4.20551
1 3.31358 10.6284 12.0438
1 3.17597 10.8708 2.62346
1 14.8904 14.207 6.43756
1 9.39792 8.6152 7.65884
1 0.948384 12.4697 0.313952
1 6.30987 4.01901 8.17009
1 1.72033 13.47 8.10586
1 13.6463 7.62614 13.8004
1 13.0839 9.03417 8.67919
1 9.5101 12.768 8.96829
1 15.0303 1.97714 9.25952
1 4.06829 7.48405 14.7893
1 12.6049 2.89351 0.799455
1 11.1075 7.58547 13.1889
1 2.51941 3.81033 13.3878
1 1.43775 4.36279 1.57001
1 10.1044 8.0284 15.1556
1 1.5736 1.89067 12.2864
1 0.374942 1.02145 6.65738
1 15.0221 2.30971 2.01838
1 15.7017 11.073 1.59858
1 5.84805 11.2002 4.66153
1 15.3496 6.59284 6.92066
