216
Atoms. Timestep: 7000
1 0.689751 15.0966 14.5149
1 0.472715 11.7721 13.6032
1 6.4907 12.5994 6.96358
1 8.7521 6.91761 0.232304
1 15.2328 15.6672 13.1096
1 7.94948 8.7264 13.1302
1 5.43091 4.25022 4.40448
1 4.11909 0.280985 3.00493
1 13.4533 13.3411 10.235
1 14.527 2.4037 6.45971
1 13.8578 7.94621 9.71761
1 3.45347 2.75582 0.474014
1 1.24999 2.87403 7.9735
1 12.928 0.0134471 3.66073
1 10.8166 15.3796 11.562
1 12.3568 8.96011 3.42611
1 2.24323 5.40696 9.38741
1 12.6368 6.92089 4.87746
1 6.28026 3.90604 11.1125
1 15.0787 12.969 14.9164
1 2.46832 6.93591 11.2151
1 10.6692 5.78371 4.10191
1 4.81028 4.57552 6.7001
1 6.33164 7.17216 9.70994
1 10.7081 4.89339 1.9545
1 12.2652 13.7188 12.2535
1 11.0413 10.125 11.0657
1 10.003 9.87964 2.94788
1 1.60777 6.10939 1.02215
1 2.72647 1.79376 9.67031
1 4.02344 9.85744 11.2965
1 4.2607 9.76825 3.19064
1 13.8137 10.0206 0.614661
1 7.47745 14.743 10.6989
1 9.19399 8.52306 10.9468
1 10.3039 11.2675 9.26438
1 7.0267 10.666 12.7189
1 -0.104625 7.98489 6.76932
1 6.97782 10.9049 10.1943
1 10.1271 10.0036 0.469371
1 4.34175 13.0862 13.2571
1 8.70051 0.443624 15.9532
1 15.7319 8.42609 0.935709
1 13.6024 3.21922 14.9053
1 12.248 2.87332 7.32258
1 9.15221 7.3049 2.68711
1 5.36681 3.02918 14.1546
1 8.24604 15.4225 6.12801
1 13.9368 15.4269 1.7537
1 13.5999 11.2241 14.9614
1 5.61307 3.88129 16.3665
1 3.2684 1.02642 5.13612
1 9.93852 2.51457 7.92801
1 15.4337 6.58567 4.53056
1 14.9943 6.05811 0.645638
1 11.2787 13.8254 0.564566
1 -0.203279 1.27785 7.57331
1 2.91321 3.38695 6.32259
1 7.1378 4.823 9.12911
1 12.8117 15.5079 15.9167
1 12.2669 13.8739 6.25358
1 14.8523 4.64168 2.51112
1 15.2118 13.5671 2.44478
1 6.54509 0.460338 5.52809
1 8.3313 4.54492 16.1585
1 11.5195 13.4232 8.64444
1 12.7299 0.733249 8.41714
1 9.39728 1.46595 3.22853
1 1.98179 10.9946 15.5984
1 6.15734 7.96314 3.41355
1 10.1672 6.5227 8.02743
1 5.11512 16.0123 15.7111
1 15.5049 13.8472 7.98663
1 2.07065 5.91135 13.5523
1 10.8948 0.979645 12.872
1 0.750603 8.21582 3.01719
1 16.1095 6.9119 11.7833
1 1.52215 2.32074 3.58258
1 11.3287 14.8018 4.23264
1 6.35082 15.9179 3.14668
1 1.02315 14.6633 11.1183
1 11.2512 0.43202 15.0923
1 11.6896 13.0721 2.75571
1 7.8204 9.03641 9.00119
1 1.6847 9.44151 10.9364
1 8.58463 13.844 7.88415
1 7.81683 11.9336 3.00623
1 9.00104 11.6744 6.49697
1 1.66093 12.3388 1.25297
1 13.9028 15.5359 6.91128
1 13.2742 9.53488 11.1627
1 6.69934 8.24499 0.998777
1 9.07878 14.5587 0.615868
1 2.85794 10.43 5.35315
1 9.02261 4.25934 12.0864
1 2.30746 8.0554 6.22588
1 1.1481 11.7555 6.17952
1 7.79157 12.9625 15.6401
1 0.0451137 7.76454 9.27879
1 6.74136 2.86577 1.92663
1 11.9593 5.15456 12.3358
1 13.497 14.61 14.0037
1 10.4947 9.5792 7.08316
1 8.51502 1.7359 12.1085
1 0.357382 4.43051 14.3953
1 8.43308 14.227 2.65804
1 1.99472 13.3951 13.1091
1 14.089 12.2785 5.97901
1 4.71266 11.2605 9.42924
1 14.5358 5.43303 14.6655
1 12.575 5.30321 8.16116
1 9.7835 8.32358 14.9832
1 11.4438 2.55478 15.9652
1 14.711 0.973034 15.0234
1 11.8062 1.79924 3.1589
1 8.85209 5.98659 5.72336
1 3.59166 13.0991 9.41367
1 14.5627 0.294314 4.95953
1 1.40629 13.9249 6.91194
1 14.7751 9.40289 4.40669
1 6.21771 6.98248 13.5277
1 4.04647 9.90052 15.3825
1 2.41511 0.187478 11.5389
1 11.777 3.46338 5.08781
1 15.996 11.5698 4.30698
1 5.28541 13.7067 15.6103
1 9.26927 15.6982 4.13779
1 4.87864 14.2877 11.0306
1 16.2802 1.95662 13.4271
1 10.7353 11.9556 12.8742
1 11.9115 8.4676 0.834786
1 5.54633 13.4951 3.05945
1 0.189111 11.4287 11.2051
1 0.686655 10.3677 8.3666
1 7.79963 0.249677 13.6874
1 1.64314 13.7024 3.62938
1 15.2328 15.0749 10.2969
1 14.9237 2.58233 11.4726
1 0.417745 2.96209 1.66581
1 0.213164 9.09649 13.1497
1 6.91897 4.67509 13.4574
1 12.0615 10.712 5.66083
1 4.60858 16.3743 11.7159
1 10.8731 15.6626 9.26395
1 13.8724 4.42831 4.75655
1 2.64883 7.28459 15.3886
1 4.00636 13.2109 1.232
1 0.170681 4.97778 8.63769
1 5.04576 1.83859 8.46011
1 0.35103 16.2637 3.53732
1 7.82759 9.62169 4.53952
1 0.939427 8.8042 15.6717
1 3.05022 7.63194 3.79677
1 4.8349 5.79804 0.938134
1 4.12786 13.8982 7.15905
1 10.0095 4.4312 14.4585
1 4.15752 2.67096 2.72313
1 10.2564 11.8672 4.32266
1 3.75897 13.0177 4.90164
1 5.69423 8.0862 7.24841
1 7.42912 2.55275 4.73749
1 7.60574 10.769 0.74607
1 5.87772 1.62759 10.5504
1 9.18218 0.370077 8.30717
1 9.0506 3.57519 5.9889
1 8.80398 14.7255 12.5555
1 4.7747 10.3911 7.23713
1 9.14531 2.39497 1.10855
1 6.53609 6.38521 5.46773
1 4.6984 0.0501009 6.91501
1 2.7917 0.381826 15.7039
1 1.59349 4.69363 4.48008
1 3.77573 3.74847 10.8239
1 0.299493 16.1277 0.819431
1 2.55424 15.3353 1.65837
1 12.3618 6.41536 0.734076
1 14.5553 11.2219 10.3509
1 8.15469 0.491271 10.2333
1 12.7252 2.61014 12.7864
1 8.60477 12.5741 13.4893
1 3.55916 6.62008 7.80251
1 4.9487 10.6928 1.06352
1 12.9362 6.01271 10.347
1 10.0351 6.30373 10.9501
1 9.29723 4.56032 9.22948
1 15.0471 4.75654 10.5981
1 3.19665 5.33256 2.83037
1 4.89621 7.6999 11.6928
1 14.3728 9.20633 7.29981
1 5.60769 0.920284 13.6571
1 6.54441 0.470033 0.899411
1 11.245 11.8978 15.5192
1 6.84986 5.60956 2.72563
1 4.8681 10.7367 13.3163
1 1.5597 10.5371 2.95391
1 14.7474 11.2115 7.92825
1 8.27756 8.3256 6.81777
1 -0.0311474 13.629 0.523128
1 6.70047 3.22649 7.43091
1 1.26899 12.9666 9.42279
1 14.0575 6.72993 13.0172
1 12.2379 7.74933 7.12409
1 8.42193 12.7965 9.93446
1 14.8498 0.97838 9.69831
1 5.23037 7.77241 15.7807
1 12.8524 3.25344 1.68019
1 14.2294 9.16334 13.4827
1 3.28202 3.74474 13.1027
1 1.52668 4.05491 0.0126713
1 11.6042 6.37899 14.6021
1 2.42494 1.61581 13.3761
1 1.39238 16.1297 5.85762
1 14.6512 1.40076 1.16961
1 13.3993 11.3124 2.99229
1 5.88223 11.3284 4.97907
1 14.6378 5.81785 7.12835
