216
Atoms. Timestep: 1000
1 0.692628 14.8841 14.9988
1 0.638141 11.8905 13.3796
1 5.63498 12.1935 6.34328
1 8.05069 6.40031 2.03785
1 15.2801 15.7972 13.5743
1 7.96261 8.46343 13.1262
1 4.0289 4.37278 3.74209
1 3.42818 0.540915 3.03934
1 13.6043 13.6762 10.6051
1 15.0156 2.19215 6.11987
1 14.2391 8.16881 9.86359
1 3.20431 3.12942 0.183016
1 1.30765 2.9275 8.31507
1 13.0148 16.2832 3.41174
1 10.9645 15.506 11.7624
1 13.0134 8.81863 4.13809
1 1.86511 6.69426 8.89515
1 12.5013 6.74076 4.95396
1 6.02332 3.84817 10.7771
1 15.0499 12.3477 14.6492
1 2.94772 6.13796 10.9239
1 10.6053 6.09434 3.89332
1 3.95929 4.65736 6.09897
1 6.08792 7.1937 9.21973
1 11.0687 5.24995 1.77792
1 12.1525 13.632 12.4799
1 10.8781 10.3459 11.3099
1 10.3586 9.58144 2.18355
1 2.39785 6.62785 0.906654
1 2.99594 2.21712 9.79414
1 3.72223 9.7472 11.3957
1 4.50416 10.079 2.69063
1 14.2153 10.089 0.930583
1 7.57 14.431 10.5469
1 9.37828 8.26525 11.2227
1 10.7857 11.5869 9.2505
1 7.13167 10.7597 12.6592
1 15.0233 8.38882 6.8006
1 7.01132 10.8537 10.163
1 9.57803 10.1261 0.0116956
1 4.25955 13.2448 13.3485
1 9.00828 0.411033 16.0977
1 15.801 8.3607 0.35674
1 13.5046 3.36022 14.525
1 12.3484 2.70692 7.78845
1 9.26568 7.98001 3.38219
1 5.88291 3.1752 14.1511
1 8.58435 15.3877 6.48235
1 14.0817 15.8183 1.23878
1 13.4581 10.6744 15.1716
1 6.58752 2.44495 1.75306
1 3.06145 0.875725 5.503
1 9.9631 2.72527 8.00016
1 15.9423 5.4571 4.96849
1 14.4605 6.40936 0.420193
1 11.0904 13.4882 0.44699
1 -0.0110326 1.16133 8.04165
1 2.40931 3.00987 6.29481
1 6.73044 4.92846 8.95512
1 12.4151 15.3094 15.991
1 12.8769 13.8008 6.53684
1 14.3124 4.46077 1.83309
1 15.2389 13.9668 1.72959
1 6.57069 0.0934521 5.55863
1 9.03449 4.48719 0.859094
1 12.0027 13.7094 8.77103
1 13.1602 0.58737 8.58623
1 9.78232 1.49899 3.75798
1 2.22247 11.0468 14.9491
1 4.42937 8.18104 3.87381
1 9.65957 6.36935 7.38031
1 4.87017 -0.180708 15.6987
1 -0.101623 13.7759 7.88494
1 4.44632 6.22175 14.4851
1 11.4621 1.23255 12.802
1 1.1086 8.17713 1.94253
1 0.798793 6.34187 12.2158
1 0.715727 2.37768 3.13274
1 11.7207 14.5264 4.45066
1 6.1718 15.5311 3.31594
1 1.29788 15.1229 11.3901
1 11.2858 0.778397 15.151
1 11.8208 12.9253 2.67203
1 7.90284 8.76803 9.36877
1 1.36448 9.41921 11.3568
1 7.89354 13.0009 6.89636
1 7.54815 12.1955 2.88669
1 8.47013 11.3523 4.98572
1 1.93727 12.0558 0.619985
1 14.5469 15.423 7.2371
1 13.2017 9.72033 11.3429
1 7.18844 7.77718 0.364616
1 8.93916 14.5241 0.528924
1 2.20168 10.2137 6.36173
1 9.22189 4.11338 12.8324
1 2.55121 8.16054 5.33599
1 1.3579 11.1195 4.37408
1 7.39629 13.1413 15.6874
1 0.374379 8.42541 9.56576
1 6.13269 3.587 3.6812
1 12.0266 5.37332 11.7762
1 13.6529 14.16 14.2486
1 11.1714 10.0048 7.44306
1 9.15835 1.67773 12.1956
1 0.357476 5.00455 14.2207
1 8.17656 14.4544 2.78212
1 1.94844 13.8525 13.2314
1 13.8406 11.729 6.20349
1 4.6822 11.0028 9.61494
1 14.43 5.4252 14.6848
1 13.3549 4.89637 8.12856
1 8.97235 8.19263 15.1888
1 11.6878 2.92242 15.8055
1 15.0906 1.58284 14.5898
1 12.07 1.96074 3.43902
1 9.11212 5.20339 5.36856
1 3.94693 13.2623 9.63853
1 14.5762 0.11642 5.14244
1 2.01555 13.8954 6.58378
1 15.2223 9.08028 4.46835
1 6.12722 6.94285 12.9544
1 4.22363 9.73589 15.2998
1 2.7742 0.534874 11.4265
1 12.9124 3.15842 5.35583
1 15.2622 11.4624 4.31109
1 5.07526 13.8057 15.5271
1 9.66538 15.6041 4.40915
1 5.2661 14.1992 11.3691
1 0.21128 2.94625 13.2899
1 10.6893 11.9025 13.1741
1 12.4518 8.88639 1.91534
1 4.38157 13.7866 3.37722
1 0.442312 11.5674 11.0205
1 0.276504 9.88913 7.68547
1 8.11411 0.272483 13.8418
1 0.565751 14.6079 3.2259
1 15.3195 15.3843 11.2535
1 15.0011 2.83261 11.5368
1 16.1411 3.24876 1.27431
1 -0.0574487 8.49267 13.0199
1 6.96177 4.66877 12.7073
1 12.0057 10.5214 5.31665
1 4.96306 0.141605 11.8757
1 11.2497 15.7222 9.44316
1 13.945 5.04606 4.17845
1 2.90573 7.8012 15.293
1 3.60651 13.6272 1.14989
1 0.261783 4.98755 8.77535
1 4.80604 1.72541 8.40162
1 0.261058 0.12819 4.1353
1 8.17719 9.06413 5.16618
1 0.902648 9.01219 14.996
1 0.61069 7.53 4.18136
1 5.51897 3.61636 -0.011117
1 4.28591 13.913 7.34927
1 10.0696 4.42271 15.0444
1 2.94459 2.73544 2.45367
1 10.5248 11.3402 3.66226
1 2.17263 13.35 4.39375
1 5.20153 8.03937 7.1958
1 6.86664 2.53428 5.57356
1 7.61422 11.2389 0.630309
1 6.15497 1.54733 10.3556
1 9.48674 0.351913 8.32024
1 9.20048 2.75036 5.73529
1 8.82498 14.7105 12.5644
1 4.46924 10.2808 7.40712
1 8.94121 2.04624 1.55329
1 6.28447 7.68917 5.18998
1 4.67175 -0.10503 6.89867
1 2.88024 1.10524 15.3976
1 0.469736 3.41947 5.14073
1 3.80714 4.00539 11.0671
1 1.18251 0.161741 0.0473538
1 2.13869 15.4803 1.74949
1 12.2399 6.88136 0.734919
1 14.5108 11.4726 10.3971
1 8.21995 0.453029 10.2929
1 12.7919 3.13762 12.2808
1 8.41161 12.5864 13.6211
1 3.28262 6.77652 7.05047
1 5.74194 9.70503 0.708873
1 13.6388 5.96884 10.2048
1 9.89143 5.73265 10.9902
1 9.06339 4.73657 8.96643
1 15.6177 5.03906 10.8757
1 4.23591 6.28922 2.41834
1 4.73725 7.59059 11.1239
1 12.9265 8.42429 7.92313
1 5.90571 0.867292 13.9165
1 5.23469 0.593486 1.53299
1 11.2021 11.5373 15.4262
1 7.16637 5.61682 4.0772
1 4.76125 10.9013 13.1988
1 2.07301 10.3465 2.21265
1 15.2114 11.6247 8.04106
1 9.20439 8.71602 7.38042
1 -0.0216494 13.1379 0.00162614
1 5.67424 3.57889 7.30715
1 1.46597 13.4168 9.83152
1 12.741 6.9023 13.623
1 11.9622 6.55416 7.11945
1 8.3594 12.5182 9.21122
1 14.9883 1.01603 10.0987
1 5.47457 5.93745 0.292619
1 12.374 3.4157 1.62089
1 13.9735 8.93735 13.4355
1 3.75199 3.86115 13.5065
1 1.37617 4.58509 0.0262184
1 10.8293 6.66965 15.0967
1 2.3465 1.96021 13.3065
1 1.21567 -0.223408 6.33831
1 15.5326 1.13298 0.412189
1 14.0421 11.9945 2.3813
1 5.54886 11.9399 3.87449
1 15.2873 5.88315 7.18096
