216
Atoms. Timestep: 8002
1 0.240892 13.6938 14.4123
1 0.580547 11.2177 13.6966
1 5.93433 12.6088 7.23448
1 6.36591 6.72101 2.70392
1 15.3392 15.7871 14.0075
1 6.39554 7.90148 12.9121
1 5.35054 2.92033 4.20756
1 4.75632 16.0961 3.75493
1 13.7967 14.9208 10.6998
1 15.0262 3.74627 5.49784
1 14.3937 8.6221 10.6239
1 2.47825 2.80456 16.0655
1 0.552806 3.75354 7.50075
1 12.8673 15.4272 2.85983
1 10.5241 16.1633 11.7502
1 10.6551 8.60698 4.97934
1 2.5549 6.37841 9.81629
1 12.7743 7.19181 5.72176
1 6.04386 3.78685 11.0996
1 14.8828 12.9606 12.6116
1 2.56915 7.13345 12.2273
1 10.1093 5.57036 4.05673
1 5.07034 5.17951 6.84816
1 6.14669 7.56622 9.62031
1 8.18406 4.88705 1.78309
1 12.0429 13.4725 11.6805
1 10.9348 8.4957 10.3004
1 9.92966 9.66953 1.66351
1 15.4218 5.54172 0.748514
1 2.98389 3.90196 8.79713
1 1.05594 10.5628 11.4849
1 5.70205 9.16275 3.08883
1 13.4675 9.4724 0.799584
1 7.95005 14.1398 11.0913
1 8.71169 6.83938 11.859
1 11.4969 14.0861 9.04515
1 6.15884 10.4017 13.4749
1 0.964985 9.16704 7.69237
1 7.36953 10.5428 11.4749
1 11.3357 9.91853 16.1823
1 4.51451 12.688 12.6334
1 9.07842 14.8309 15.575
1 15.28 8.02203 16.2328
1 13.2165 1.92475 14.8088
1 11.7525 4.02603 7.47206
1 10.602 7.56218 2.89468
1 4.77656 3.06879 15.3093
1 8.7745 15.3977 6.58245
1 14.0663 14.681 0.983784
1 13.6724 10.7149 12.4246
1 5.27903 4.46271 1.15454
1 4.0988 1.53761 5.61567
1 9.65485 2.96093 8.28962
1 1.00329 7.25042 5.58724
1 12.5847 5.34116 0.557499
1 11.7195 12.2191 16.0525
1 0.151974 0.23208 9.12615
1 3.09506 3.64477 6.20704
1 7.32036 5.35054 9.69775
1 13.0693 15.9121 15.2915
1 12.994 15.5353 5.95425
1 14.3039 5.3358 2.89136
1 0.268028 14.7448 1.15189
1 6.83767 16.2633 5.41079
1 7.52901 6.13572 15.9763
1 11.4668 16.2072 8.03435
1 13.1737 2.0376 7.61616
1 9.09782 1.3084 2.95076
1 2.06293 10.2935 15.8972
1 8.12124 8.55143 4.11647
1 9.62323 6.14265 8.53631
1 5.52744 15.5589 0.325126
1 15.0795 14.3583 8.81406
1 1.1848 5.58051 13.7388
1 10.2427 1.8774 13.1479
1 1.67345 8.82233 3.27062
1 15.1695 5.88127 12.7703
1 1.71079 1.15771 4.52584
1 12.4208 13.3226 4.17703
1 7.59697 14.953 3.09818
1 2.36922 14.8201 10.4554
1 10.5768 0.3716 15.2206
1 13.7365 12.5092 1.03228
1 8.52761 8.56915 10.121
1 0.218209 8.26658 12.2585
1 8.58827 12.9427 6.79305
1 8.13527 10.8086 2.73953
1 10.3679 11.3696 5.2512
1 2.76539 13.2169 1.671
1 14.7215 1.40336 5.54626
1 13.8867 11.7523 9.67895
1 5.47399 7.57797 0.57954
1 9.58965 12.8107 0.301192
1 3.5817 10.9945 5.14322
1 7.94748 3.27719 13.0019
1 3.14563 8.50507 6.93623
1 0.249337 12.0089 5.29104
1 7.85348 11.9129 14.8134
1 0.386732 7.88832 9.68661
1 5.53981 1.85999 2.13964
1 11.6019 5.18658 14.2732
1 12.8911 13.6476 14.1969
1 11.0636 10.4005 7.5921
1 7.15035 1.02259 13.2326
1 0.170536 3.29574 15.2476
1 9.31038 13.0265 2.86634
1 2.59689 14.1559 13.0114
1 13.8619 11.6768 5.6448
1 5.37025 11.2976 10.3006
1 14.2234 4.63804 14.7929
1 12.3569 6.16381 8.19183
1 7.8305 8.39953 14.9326
1 9.88333 2.49308 0.150235
1 16.1444 0.845013 16.149
1 11.7222 0.61917 1.42949
1 9.04791 5.84631 6.18333
1 4.8406 13.4096 9.06321
1 14.8465 0.345879 3.56668
1 1.31281 15.0925 6.22957
1 14.7205 7.90028 4.48265
1 5.40662 5.7672 13.0758
1 3.92944 9.70262 14.6495
1 2.20111 1.428 10.0313
1 10.853 3.17866 2.7215
1 15.966 10.1363 3.86382
1 6.3251 13.5042 14.2095
1 10.4507 14.6449 4.69054
1 5.69458 14.3254 11.067
1 15.8365 2.05307 13.2995
1 11.3901 11.0716 10.6372
1 12.8547 7.6167 2.21817
1 6.23182 12.7424 2.5386
1 0.329565 12.8278 10.2402
1 1.75726 11.4524 6.88641
1 7.74117 14.9959 13.4947
1 2.01542 13.3712 4.29696
1 16.2737 15.577 11.7304
1 14.3447 2.68368 11.5667
1 0.221393 3.621 3.45417
1 15.1693 9.61243 14.0401
1 6.53146 4.47926 14.6918
1 12.7974 9.82773 4.04272
1 4.02483 0.0434155 11.3243
1 12.6379 0.829715 10.4716
1 12.5874 4.71711 5.42596
1 2.1123 6.79967 15.7243
1 4.85117 12.6106 0.388192
1 0.00971913 5.69385 8.9301
1 4.7575 1.75073 8.82102
1 0.733974 15.3627 3.41896
1 8.09369 10.619 5.90688
1 0.966737 8.90568 1.01856
1 3.78856 8.22312 4.45188
1 3.15671 5.96203 1.38999
1 3.64143 14.5158 6.96208
1 9.60873 4.28425 14.9494
1 3.02374 2.15464 2.47256
1 11.486 11.5781 2.52301
1 4.50008 13.7576 4.78122
1 7.07397 8.57737 7.22756
1 7.49952 2.06304 4.65503
1 7.59735 10.1252 0.457046
1 6.20953 1.27475 10.6717
1 9.16961 0.448586 8.46243
1 8.13124 3.52592 6.61891
1 10.1906 13.7875 12.9005
1 4.93767 10.1553 7.62092
1 7.53035 2.51372 0.96187
1 6.96639 6.64712 5.61294
1 5.1831 16.2152 7.25101
1 3.03777 0.441133 13.7303
1 1.60738 5.03902 5.09198
1 3.78008 4.65241 11.3899
1 2.19114 0.302666 15.9983
1 3.33275 15.8266 1.72282
1 10.1605 6.46148 0.659048
1 12.7546 12.5995 7.87385
1 8.26117 0.0435945 10.4813
1 12.18 3.26175 12.8617
1 9.30141 11.5493 12.7121
1 4.32017 6.87734 8.37631
1 4.83929 10.1234 0.826916
1 12.5272 6.09741 10.3635
1 10.7983 5.28508 11.7379
1 9.02347 3.88418 10.6272
1 15.1049 4.76536 10.6366
1 3.26125 5.99194 3.6667
1 4.71646 8.56639 11.2948
1 14.8661 9.25684 6.77891
1 4.96948 0.767162 15.0054
1 7.98894 16.1746 1.05718
1 11.4654 10.4728 13.4992
1 5.32273 5.19112 4.23542
1 3.48492 10.6509 12.0455
1 3.06133 10.816 2.61628
1 14.6865 14.2117 6.41773
1 9.41552 8.68974 7.54488
1 0.93326 12.4087 0.427097
1 6.25726 3.82515 8.15829
1 1.6772 13.3405 8.10961
1 13.5551 7.55681 13.911
1 13.066 8.87526 8.68218
1 9.45642 12.8798 9.21216
1 14.958 2.00399 9.25972
1 4.09672 7.57321 14.7176
1 12.708 2.83179 0.945978
1 11.2197 7.86511 13.1809
1 2.58279 3.92517 13.4794
1 1.25574 4.55956 1.59523
1 10.0932 8.00246 15.2305
1 1.63907 1.81805 12.3217
1 0.381832 1.01512 6.70147
1 14.9069 2.23367 1.99599
1 15.6858 10.807 1.56901
1 5.79757 11.1165 4.64673
1 15.2443 6.33254 7.04903
