216
Atoms. Timestep: 8004
1 0.25301 13.6698 14.4087
1 0.601663 11.2011 13.6993
1 5.93041 12.5873 7.21335
1 6.36442 6.70246 2.71138
1 15.3383 15.7867 14.0164
1 6.40929 7.92374 12.9071
1 5.36264 2.92778 4.15951
1 4.74794 16.0956 3.7352
1 13.8096 14.9395 10.7024
1 14.9961 3.76492 5.49806
1 14.3763 8.61347 10.6227
1 2.46086 2.79729 16.0631
1 0.551584 3.77737 7.50368
1 12.8769 15.424 2.84693
1 10.5077 16.1523 11.7579
1 10.6381 8.63663 4.95354
1 2.5725 6.37684 9.80644
1 12.7793 7.1763 5.74054
1 6.04079 3.77788 11.0785
1 14.8935 12.9394 12.6088
1 2.53124 7.12826 12.2311
1 10.1313 5.58369 4.03656
1 5.07995 5.15764 6.85715
1 6.15893 7.54284 9.58413
1 8.17121 4.87202 1.75568
1 12.0586 13.47 11.6738
1 10.8887 8.49111 10.2874
1 9.93959 9.67167 1.65323
1 15.4264 5.51379 0.742141
1 2.99279 3.89229 8.79821
1 1.06584 10.5467 11.4601
1 5.70459 9.16644 3.09693
1 13.4747 9.47573 0.806191
1 7.95086 14.118 11.0955
1 8.70277 6.83416 11.8451
1 11.5085 14.058 9.0401
1 6.14576 10.4164 13.4698
1 0.955873 9.17188 7.69198
1 7.35715 10.5362 11.4741
1 11.346 9.93099 16.1813
1 4.52351 12.681 12.6591
1 9.07548 14.8189 15.568
1 15.3107 8.0317 16.2344
1 13.2009 1.91481 14.8244
1 11.778 4.02496 7.48906
1 10.6469 7.58669 2.88274
1 4.75453 3.08594 15.299
1 8.75866 15.3888 6.58806
1 14.0647 14.6925 1.02964
1 13.6678 10.6912 12.415
1 5.303 4.45512 1.17702
1 4.10603 1.53446 5.63729
1 9.66891 2.98877 8.29082
1 0.997378 7.27306 5.63179
1 12.5922 5.3548 0.56706
1 11.7094 12.1917 16.0662
1 0.151595 0.203541 9.12472
1 3.08857 3.63523 6.21567
1 7.33485 5.35325 9.7222
1 13.0501 15.9111 15.2625
1 13 15.5721 5.93713
1 14.3412 5.32098 2.87598
1 0.266402 14.7553 1.16213
1 6.85421 16.2732 5.42016
1 7.50326 6.13335 16.0097
1 11.4841 16.2326 8.02533
1 13.1705 2.02541 7.61148
1 9.10181 1.29001 2.97503
1 2.04915 10.29 15.8878
1 8.13003 8.55763 4.1193
1 9.6476 6.1464 8.52041
1 5.5357 15.5543 0.321988
1 15.0804 14.3797 8.82584
1 1.18151 5.58762 13.7034
1 10.247 1.88109 13.1339
1 1.69187 8.7958 3.25693
1 15.1422 5.88248 12.8115
1 1.72438 1.17836 4.52052
1 12.43 13.3076 4.13839
1 7.59617 14.9567 3.09318
1 2.38109 14.7924 10.4574
1 10.5998 0.35266 15.2444
1 13.7417 12.519 1.03215
1 8.55417 8.5848 10.1429
1 0.218574 8.27073 12.2475
1 8.58965 12.9499 6.79138
1 8.15201 10.8134 2.73051
1 10.3896 11.3704 5.25873
1 2.77764 13.2361 1.6682
1 14.7483 1.36843 5.55559
1 13.8936 11.7969 9.68673
1 5.46117 7.58169 0.611594
1 9.60844 12.8125 0.282526
1 3.60204 11.0078 5.14929
1 7.9385 3.28245 13.0209
1 3.14195 8.48994 6.95829
1 0.26724 12.026 5.24431
1 7.83436 11.9072 14.8221
1 0.367634 7.88695 9.70043
1 5.56037 1.85747 2.1968
1 11.6188 5.22778 14.2665
1 12.893 13.6274 14.2005
1 11.0302 10.372 7.58176
1 7.14211 1.02034 13.2337
1 0.183795 3.28665 15.2452
1 9.32712 13.064 2.86325
1 2.57047 14.1731 13.0323
1 13.8266 11.6618 5.65215
1 5.37107 11.284 10.3199
1 14.2135 4.63338 14.795
1 12.3496 6.16909 8.20597
1 7.84765 8.40308 14.9252
1 9.89073 2.47263 0.1624
1 16.1514 0.825728 16.1408
1 11.721 0.630795 1.40223
1 9.05432 5.83473 6.16538
1 4.85317 13.4269 9.02963
1 14.8416 0.31418 3.5183
1 1.30916 15.0992 6.24523
1 14.6957 7.88868 4.49613
1 5.38533 5.75337 13.0804
1 3.90573 9.69055 14.622
1 2.20577 1.43789 10.0286
1 10.8595 3.18871 2.67468
1 15.9225 10.1329 3.85129
1 6.29499 13.5133 14.2284
1 10.4365 14.6502 4.71478
1 5.66483 14.329 11.062
1 15.8264 2.05604 13.3077
1 11.3705 11.0522 10.6396
1 12.8458 7.61889 2.20113
1 6.201 12.7749 2.52737
1 0.318085 12.8146 10.2358
1 1.77453 11.4537 6.87216
1 7.74503 14.9808 13.5062
1 2.01471 13.3607 4.25275
1 16.2797 15.5981 11.7278
1 14.3603 2.69457 11.5752
1 0.237088 3.61741 3.43975
1 15.1572 9.61338 14.0819
1 6.4962 4.44966 14.7006
1 12.823 9.85493 4.05662
1 4.00267 0.0118061 11.3412
1 12.6271 0.815997 10.468
1 12.6291 4.71942 5.42571
1 2.11357 6.80542 15.7283
1 4.85944 12.6017 0.377106
1 0.0102479 5.72198 8.96781
1 4.74642 1.75877 8.81376
1 0.774998 15.3341 3.41659
1 8.10552 10.6368 5.89724
1 0.970696 8.90336 1.00697
1 3.79171 8.21162 4.46961
1 3.14432 5.93298 1.38466
1 3.6283 14.4862 6.97239
1 9.59288 4.28922 14.9365
1 3.01791 2.14603 2.50318
1 11.4707 11.5813 2.54282
1 4.47912 13.7355 4.79803
1 7.08029 8.59543 7.21897
1 7.50672 2.06679 4.65424
1 7.60348 10.1278 0.422748
1 6.19444 1.24304 10.6633
1 9.17073 0.438446 8.4638
1 8.12493 3.53495 6.6354
1 10.2363 13.7563 12.9092
1 4.94231 10.1617 7.62127
1 7.51988 2.5214 0.944205
1 6.9376 6.65118 5.62621
1 5.16259 16.2161 7.26654
1 3.04249 0.435635 13.7384
1 1.61662 5.02761 5.08408
1 3.74989 4.62262 11.423
1 2.17153 0.319236 16.0042
1 3.34875 15.8186 1.72985
1 10.1528 6.45938 0.693923
1 12.7363 12.5912 7.83978
1 8.23817 0.0549729 10.5038
1 12.1775 3.26894 12.8308
1 9.31775 11.5709 12.7089
1 4.31677 6.86923 8.38698
1 4.85254 10.1047 0.830418
1 12.5011 6.13391 10.3721
1 10.7836 5.27073 11.7442
1 8.97893 3.88962 10.6196
1 15.1219 4.80216 10.6145
1 3.256 6.0324 3.68164
1 4.72396 8.55968 11.3121
1 14.8669 9.2806 6.7864
1 4.99024 0.781838 15.0126
1 7.98745 16.1746 1.06091
1 11.4487 10.471 13.5266
1 5.3572 5.18571 4.22737
1 3.46474 10.6567 12.0439
1 3.07862 10.8283 2.61735
1 14.7078 14.2232 6.42107
1 9.41412 8.69469 7.5591
1 0.936205 12.4132 0.413294
1 6.26046 3.87117 8.15893
1 1.68739 13.3634 8.09677
1 13.5651 7.5665 13.8986
1 13.0742 8.89264 8.69452
1 9.46434 12.8686 9.17008
1 14.9719 1.98989 9.26316
1 4.08959 7.57938 14.7334
1 12.6702 2.83423 0.923684
1 11.2021 7.81862 13.1964
1 2.56327 3.92548 13.4673
1 1.28249 4.53924 1.60353
1 10.0936 8.00601 15.2141
1 1.62656 1.82479 12.3089
1 0.36989 1.00816 6.68391
1 14.926 2.25087 2.00733
1 15.6969 10.8469 1.5755
1 5.78576 11.1226 4.65531
1 15.2667 6.3756 7.03162
