216
Atoms. Timestep: 8025
1 0.382355 13.5472 14.3882
1 0.738115 11.0893 13.7438
1 5.97812 12.4237 7.03366
1 6.43941 6.59315 2.74756
1 15.3161 15.816 14.0996
1 6.5426 7.98121 12.866
1 5.45675 2.99597 4.00705
1 4.74572 16.0055 3.67225
1 13.8873 15.0633 10.7563
1 14.863 3.88908 5.52076
1 14.2169 8.57477 10.6668
1 2.37691 2.76394 16.1311
1 0.518045 3.84019 7.51961
1 12.8949 15.4063 2.85072
1 10.408 16.114 11.782
1 10.5963 8.81005 4.89419
1 2.65297 6.32337 9.7971
1 12.7494 7.09747 5.87338
1 5.98319 3.6762 11.0196
1 14.9344 12.8361 12.5542
1 2.38566 7.12628 12.2505
1 10.2874 5.56035 3.89311
1 5.04752 5.09892 6.87877
1 6.25908 7.46226 9.38603
1 8.18432 4.8045 1.67139
1 12.2057 13.4061 11.552
1 10.768 8.46335 10.253
1 10.0102 9.65079 1.63854
1 15.4988 5.40882 0.658975
1 3.01631 3.80136 8.82367
1 1.13274 10.4927 11.3173
1 5.68621 9.20875 3.19198
1 13.5562 9.47989 0.863705
1 8.01899 13.9685 11.1027
1 8.62727 6.81951 11.7845
1 11.5529 13.9451 9.04388
1 6.09575 10.5168 13.5175
1 0.873813 9.23214 7.70069
1 7.36227 10.4929 11.4199
1 11.4402 9.92771 16.0895
1 4.57337 12.7372 12.804
1 9.06727 14.8165 15.5213
1 15.4382 8.03809 16.2405
1 13.1679 1.9687 14.8736
1 11.9141 3.95885 7.57955
1 10.8526 7.7165 2.76815
1 4.57326 3.1662 15.2605
1 8.68106 15.3188 6.57225
1 14.1006 14.7704 1.16259
1 13.6351 10.5516 12.3258
1 5.34683 4.40865 1.2932
1 4.08969 1.50455 5.71122
1 9.73332 3.11186 8.32781
1 0.933397 7.39748 5.83458
1 12.5779 5.43266 0.640209
1 11.7154 12.1014 16.0581
1 0.194576 0.0619055 9.10861
1 3.08998 3.61049 6.31055
1 7.42323 5.45157 9.82802
1 13.0004 15.7968 15.1255
1 12.977 15.7966 5.81648
1 14.5259 5.26777 2.86142
1 0.22235 14.839 1.18781
1 6.95569 0.0111575 5.45583
1 7.36251 6.15144 16.1357
1 11.6227 0.0976314 8.01254
1 13.171 1.93457 7.5946
1 9.16285 1.22664 3.09222
1 1.97539 10.3391 15.8029
1 8.14956 8.59206 4.15537
1 9.80208 6.19022 8.42711
1 5.59288 15.4739 0.342691
1 15.1155 14.4655 8.86521
1 1.13523 5.68472 13.5785
1 10.2528 1.86819 13.1103
1 1.75465 8.69014 3.21811
1 15.0223 5.89945 13.0169
1 1.80991 1.32995 4.46451
1 12.4917 13.2332 3.95383
1 7.55386 14.9493 3.1024
1 2.38268 14.593 10.4534
1 10.6667 0.255991 15.326
1 13.7416 12.5074 1.06733
1 8.58863 8.69487 10.2598
1 0.225104 8.3011 12.225
1 8.56903 13.0083 6.84447
1 8.20149 10.9081 2.7269
1 10.5283 11.3945 5.29682
1 2.8722 13.3203 1.65657
1 14.7897 1.20058 5.61758
1 13.9331 11.9906 9.7804
1 5.37202 7.56587 0.697422
1 9.62946 12.8202 0.215173
1 3.63785 11.031 5.205
1 7.92412 3.29812 13.1153
1 3.19061 8.41346 7.05539
1 0.291288 12.1286 5.01861
1 7.77756 11.8316 14.874
1 0.28759 7.95861 9.75328
1 5.65442 1.77752 2.38045
1 11.6978 5.4633 14.2648
1 12.8949 13.5107 14.2377
1 10.9345 10.3087 7.59713
1 7.03753 0.998807 13.2579
1 0.211913 3.26972 15.2436
1 9.40713 13.2584 2.84706
1 2.38152 14.2631 13.1682
1 13.6791 11.5988 5.68996
1 5.34758 11.1885 10.3342
1 14.1775 4.57361 14.8001
1 12.2946 6.26133 8.23991
1 7.90068 8.39983 14.9317
1 9.84238 2.40928 0.177643
1 16.099 0.720759 16.1387
1 11.6963 0.621048 1.31533
1 9.05637 5.73927 6.06872
1 4.86719 13.5226 8.90072
1 14.8706 0.190079 3.27415
1 1.18936 15.1014 6.31295
1 14.5774 7.81707 4.48603
1 5.23089 5.71137 13.1321
1 3.80364 9.71085 14.438
1 2.25013 1.49958 9.9764
1 10.8062 3.31178 2.47791
1 15.7048 10.1094 3.80185
1 6.04169 13.5595 14.4402
1 10.3565 14.6599 4.85574
1 5.48045 14.3297 11.0547
1 15.7289 2.02402 13.3394
1 11.2562 10.9653 10.6072
1 12.9042 7.60554 2.13903
1 6.04733 12.9529 2.51883
1 0.219935 12.7298 10.2562
1 1.85871 11.397 6.80509
1 7.81375 14.9247 13.5418
1 2.03573 13.3086 3.97961
1 0.0554448 15.6726 11.6962
1 14.3938 2.75429 11.5984
1 0.32653 3.56293 3.4233
1 15.0852 9.59524 14.2905
1 6.37102 4.3296 14.689
1 12.9536 9.99859 4.1064
1 3.97002 16.1574 11.4188
1 12.5583 0.72588 10.4276
1 12.8158 4.75358 5.33883
1 2.05317 6.87322 15.7438
1 4.94058 12.6119 0.334165
1 0.071238 5.84092 9.1169
1 4.69364 1.84272 8.77271
1 1.00245 15.2497 3.39808
1 8.10696 10.7106 5.79375
1 1.00858 8.83525 0.917514
1 3.82389 8.2052 4.58526
1 3.15856 5.77245 1.35387
1 3.62505 14.3615 7.00697
1 9.47969 4.31983 14.8912
1 2.92138 2.12795 2.5974
1 11.4306 11.592 2.68381
1 4.3717 13.635 4.87449
1 7.02796 8.6969 7.20004
1 7.59298 2.12244 4.71071
1 7.5626 10.1565 0.18806
1 6.06457 1.10017 10.6792
1 9.21592 0.45821 8.44329
1 8.08614 3.59849 6.70004
1 10.4108 13.6717 13.0029
1 5.00619 10.2072 7.6419
1 7.49718 2.55419 0.821982
1 6.83474 6.72248 5.7464
1 5.05804 16.2532 7.33243
1 3.05504 0.348987 13.7546
1 1.63185 4.9691 5.01589
1 3.59689 4.47443 11.5891
1 2.08088 0.426366 16.0602
1 3.41628 15.7429 1.73424
1 10.1316 6.39362 0.8574
1 12.6549 12.4883 7.62494
1 8.18074 0.0912628 10.6285
1 12.1911 3.25983 12.6689
1 9.3902 11.6658 12.6961
1 4.27984 6.83295 8.37275
1 4.94375 10.0407 0.826565
1 12.4426 6.3847 10.5037
1 10.6858 5.19041 11.7303
1 8.85361 3.89157 10.592
1 15.063 4.994 10.5964
1 3.2408 6.2215 3.77397
1 4.72153 8.48881 11.3781
1 14.8357 9.41399 6.82724
1 5.18579 0.897719 14.9503
1 7.93288 16.1619 1.04388
1 11.3552 10.4367 13.6478
1 5.4667 5.18135 4.2036
1 3.32147 10.6335 12.0434
1 3.17053 10.872 2.62307
1 14.8776 14.2126 6.43774
1 9.40127 8.62741 7.6528
1 0.946779 12.4626 0.319204
1 6.30439 4.0195 8.16693
1 1.72101 13.4668 8.10007
1 13.6404 7.62021 13.8096
1 13.0861 9.02238 8.68667
1 9.5067 12.7772 8.9758
1 15.0285 1.9734 9.2612
1 4.06761 7.49712 14.7891
1 12.5967 2.88704 0.805156
1 11.1122 7.59516 13.1972
1 2.51993 3.82407 13.3902
1 1.42931 4.37651 1.57693
1 10.1039 8.02788 15.1538
1 1.57466 1.88685 12.2845
1 0.36735 1.0168 6.65305
1 15.0188 2.30934 2.02265
1 15.7053 11.0613 1.599
1 5.83483 11.193 4.667
1 15.3478 6.58482 6.92506
