216
Atoms. Timestep: 8008
1 0.285676 13.6253 14.4027
1 0.644956 11.1686 13.7098
1 5.93176 12.5402 7.16348
1 6.37179 6.66409 2.72369
1 15.3338 15.7921 14.0385
1 6.44296 7.95816 12.8948
1 5.3913 2.94513 4.07706
1 4.737 16.0823 3.70298
1 13.8349 14.9773 10.7113
1 14.9402 3.80523 5.50074
1 14.3356 8.59991 10.6256
1 2.42904 2.78441 16.0689
1 0.546995 3.81184 7.50926
1 12.8957 15.4178 2.83004
1 10.4754 16.1357 11.7695
1 10.6127 8.69508 4.91722
1 2.60459 6.36958 9.79155
1 12.7816 7.14678 5.77993
1 6.03186 3.75489 11.0456
1 14.9108 12.9009 12.5973
1 2.467 7.12179 12.2395
1 10.1768 5.59445 3.99426
1 5.08861 5.12263 6.87201
1 6.18672 7.50342 9.51545
1 8.15537 4.84632 1.7124
1 12.0957 13.4586 11.6511
1 10.8163 8.48154 10.2674
1 9.96158 9.67038 1.64007
1 15.4402 5.46805 0.724385
1 3.00706 3.86798 8.80215
1 1.08751 10.521 11.4129
1 5.70415 9.17663 3.11798
1 13.4929 9.47982 0.822286
1 7.96211 14.0729 11.1009
1 8.68388 6.8261 11.8205
1 11.5283 14.0089 9.03549
1 6.12416 10.4467 13.47
1 0.934013 9.18468 7.69181
1 7.34296 10.5222 11.465
1 11.3699 9.94681 16.1657
1 4.5424 12.6809 12.7094
1 9.07052 14.8047 15.5534
1 15.3638 8.04445 16.2363
1 13.1784 1.90996 14.8507
1 11.8241 4.01411 7.52179
1 10.727 7.63159 2.85192
1 4.70728 3.11736 15.2823
1 8.72947 15.368 6.59089
1 14.0674 14.7194 1.10613
1 13.6599 10.6462 12.3918
1 5.33904 4.44115 1.21981
1 4.1104 1.52594 5.67453
1 9.69386 3.03723 8.297
1 0.979416 7.31716 5.71192
1 12.599 5.38052 0.587571
1 11.6974 12.1462 16.0793
1 0.154983 0.150631 9.12103
1 3.08089 3.62172 6.2388
1 7.36332 5.3678 9.76543
1 13.0196 15.8959 15.2108
1 13.0027 15.6478 5.90254
1 14.4087 5.2964 2.85636
1 0.258048 14.78 1.17756
1 6.88921 16.2851 5.43573
1 7.45474 6.13219 16.0686
1 11.5241 16.2818 8.01214
1 13.1649 1.99779 7.60301
1 9.11405 1.26063 3.01975
1 2.02181 10.2927 15.8654
1 8.14318 8.56933 4.12797
1 9.69706 6.15669 8.49082
1 5.55293 15.538 0.322288
1 15.0871 14.4167 8.84615
1 1.17102 5.61016 13.6448
1 10.2526 1.88369 13.1136
1 1.72278 8.74974 3.23648
1 15.0947 5.88724 12.8877
1 1.75245 1.22432 4.50509
1 12.4483 13.2778 4.06958
1 7.59024 14.9595 3.08862
1 2.39652 14.7335 10.4597
1 10.6373 0.319028 15.2842
1 13.7485 12.5274 1.0357
1 8.59304 8.6172 10.1833
1 0.220631 8.27771 12.2314
1 8.58879 12.9671 6.79769
1 8.1787 10.8311 2.72094
1 10.4338 11.3737 5.27095
1 2.80406 13.2705 1.66617
1 14.7866 1.30476 5.57872
1 13.9079 11.8731 9.70978
1 5.43585 7.58406 0.659636
1 9.6333 12.8156 0.251189
1 3.63078 11.0278 5.16333
1 7.92647 3.29162 13.0557
1 3.14365 8.46135 6.99655
1 0.291422 12.0599 5.15935
1 7.80526 11.8885 14.8402
1 0.335496 7.89314 9.72316
1 5.59564 1.84801 2.29123
1 11.6496 5.30961 14.2568
1 12.8954 13.5897 14.2092
1 10.9785 10.3292 7.57108
1 7.11802 1.0151 13.2379
1 0.203165 3.27405 15.2428
1 9.35784 13.1331 2.8583
1 2.51437 14.2062 13.0738
1 13.7651 11.6345 5.66565
1 5.37014 11.2548 10.344
1 14.1982 4.62155 14.7978
1 12.3343 6.18814 8.22691
1 7.87511 8.40782 14.9176
1 9.8961 2.43933 0.180084
1 16.1539 0.789685 16.1306
1 11.7153 0.645072 1.35703
1 9.06264 5.8082 6.13218
1 4.86794 13.4608 8.97384
1 14.8363 0.257583 3.42618
1 1.29075 15.1061 6.27453
1 14.6529 7.86642 4.51199
1 5.34075 5.7305 13.0929
1 3.86543 9.67985 14.5659
1 2.21692 1.45956 10.0175
1 10.8615 3.2153 2.59362
1 15.842 10.1254 3.8307
1 6.22439 13.5283 14.277
1 10.4068 14.6579 4.7616
1 5.60289 14.3355 11.0548
1 15.8016 2.05525 13.3211
1 11.3328 11.0188 10.6374
1 12.8395 7.62002 2.17337
1 6.14437 12.836 2.51259
1 0.291262 12.7885 10.2333
1 1.80662 11.4456 6.84754
1 7.76006 14.9572 13.5249
1 2.01596 13.3424 4.16473
1 16.2924 15.6323 11.7191
1 14.3828 2.71434 11.5904
1 0.266816 3.60588 3.41946
1 15.1336 9.61078 14.1575
1 6.43781 4.39772 14.7086
1 12.8698 9.90756 4.07972
1 3.97468 -0.0432997 11.3721
1 12.6056 0.787208 10.4581
1 12.7047 4.726 5.41179
1 2.10731 6.82218 15.7347
1 4.88012 12.5938 0.358619
1 0.0171803 5.76943 9.03542
1 4.72553 1.77889 8.79862
1 0.85195 15.2873 3.40944
1 8.1182 10.6672 5.87272
1 0.979003 8.89025 0.980366
1 3.79851 8.1946 4.50366
1 3.1315 5.87711 1.37329
1 3.61223 14.4345 6.9893
1 9.55823 4.29879 14.915
1 2.99673 2.13405 2.55159
1 11.4488 11.587 2.58751
1 4.44193 13.695 4.82833
1 7.07945 8.62905 7.20668
1 7.5257 2.07829 4.65973
1 7.60421 10.1347 0.349806
1 6.16175 1.18696 10.656
1 9.17792 0.429487 8.46191
1 8.11191 3.55401 6.66321
1 10.3107 13.7076 12.9312
1 4.9569 10.1757 7.62346
1 7.50521 2.53657 0.908256
1 6.88969 6.66566 5.65724
1 5.12472 16.2232 7.2941
1 3.04942 0.416076 13.748
1 1.62949 5.0052 5.0648
1 3.69332 4.56746 11.4853
1 2.13359 0.352584 16.0191
1 3.37621 15.7986 1.73986
1 10.142 6.44753 0.757612
1 12.7039 12.5684 7.77122
1 8.20325 0.0746588 10.5475
1 12.1764 3.27515 12.7733
1 9.34729 11.6098 12.7041
1 4.3068 6.85616 8.39797
1 4.88027 10.0745 0.835076
1 12.4641 6.2083 10.399
1 10.7533 5.24511 11.7504
1 8.90949 3.89811 10.6067
1 15.1361 4.87149 10.5829
1 3.24753 6.10761 3.71323
1 4.73239 8.54287 11.3419
1 14.8651 9.32462 6.80022
1 5.04217 0.814819 15.012
1 7.97803 16.1718 1.06265
1 11.4163 10.4642 13.5766
1 5.41313 5.17727 4.21367
1 3.4205 10.6599 12.0421
1 3.11078 10.85 2.61935
1 14.7566 14.2341 6.42785
1 9.41316 8.69273 7.58852
1 0.939677 12.4231 0.383563
1 6.26869 3.94549 8.15836
1 1.70465 13.4049 8.08231
1 13.5867 7.58212 13.8741
1 13.0855 8.92872 8.70852
1 9.47843 12.8445 9.09511
1 14.9958 1.97148 9.26649
1 4.07743 7.57539 14.7595
1 12.614 2.84309 0.881932
1 11.1694 7.73475 13.2157
1 2.5374 3.91218 13.4408
1 1.33309 4.49467 1.60948
1 10.0964 8.01412 15.1839
1 1.60468 1.84224 12.2909
1 0.352746 1.00127 6.65823
1 14.9617 2.27859 2.02364
1 15.7109 10.9221 1.58701
1 5.77657 11.1394 4.66979
1 15.3021 6.45518 6.99432
