216
Atoms. Timestep: 8007
1 0.276655 13.6359 14.4041
1 0.634119 11.1767 13.7067
1 5.93027 12.5524 7.17669
1 6.36866 6.67359 2.72087
1 15.3352 15.7902 14.0325
1 6.43389 7.95096 12.898
1 5.38381 2.94046 4.09535
1 4.73895 16.0871 3.71001
1 13.8287 14.9679 10.7086
1 14.9533 3.79504 5.49977
1 14.3464 8.60293 10.6242
1 2.43652 2.78739 16.0662
1 0.548489 3.80476 7.50792
1 12.8915 15.4193 2.83298
1 10.4834 16.1392 11.767
1 10.618 8.68075 4.92449
1 2.59708 6.37199 9.79449
1 12.782 7.15384 5.76995
1 6.03463 3.76128 11.0526
1 14.907 12.91 12.6008
1 2.48148 7.12292 12.2374
1 10.1652 5.59357 4.00503
1 5.08789 5.1301 6.86882
1 6.17944 7.5122 9.53197
1 8.15792 4.85222 1.72171
1 12.0857 13.4622 11.658
1 10.8316 8.48391 10.2716
1 9.95595 9.67133 1.64247
1 15.4361 5.47822 0.729451
1 3.00398 3.87453 8.80091
1 1.082 10.5266 11.4243
1 5.70484 9.17376 3.11209
1 13.4878 9.47908 0.818008
1 7.95826 14.0843 11.0999
1 8.6888 6.82783 11.8262
1 11.5239 14.0201 9.03602
1 6.12897 10.4391 13.4686
1 0.939859 9.18108 7.6917
1 7.34512 10.5257 11.4681
1 11.3635 9.94414 16.1711
1 4.53774 12.6793 12.6972
1 9.07159 14.807 15.5571
1 15.3516 8.04211 16.2359
1 13.1829 1.90928 14.8449
1 11.8132 4.0178 7.5139
1 10.7083 7.62091 2.86031
1 4.71957 3.10999 15.286
1 8.73639 15.3734 6.5911
1 14.066 14.7125 1.08941
1 13.6618 10.6572 12.398
1 5.33174 4.44454 1.20951
1 4.11038 1.52823 5.66618
1 9.68806 3.02608 8.295
1 0.984447 7.3065 5.69324
1 12.5983 5.3743 0.582297
1 11.6993 12.1562 16.0777
1 0.153523 0.163191 9.12205
1 3.0821 3.62448 6.23241
1 7.35633 5.36294 9.75548
1 13.0261 15.9014 15.2228
1 13.0031 15.629 5.91124
1 14.3928 5.30187 2.85988
1 0.260722 14.7735 1.17433
1 6.88046 16.2831 5.43223
1 7.46639 6.13197 16.0552
1 11.5136 16.27 8.01476
1 13.1661 2.00495 7.60495
1 9.11047 1.26705 3.00919
1 2.02843 10.2909 15.8714
1 8.14049 8.56649 4.1255
1 9.68474 6.15381 8.49798
1 5.54857 15.5429 0.321509
1 15.085 14.4083 8.84161
1 1.17407 5.60361 13.6578
1 10.2515 1.88362 13.1177
1 1.71593 8.76022 3.24076
1 15.1057 5.88586 12.8696
1 1.74544 1.21249 4.50939
1 12.4437 13.285 4.08565
1 7.59228 14.9594 3.08909
1 2.3938 14.7485 10.4594
1 10.6292 0.326968 15.2754
1 13.7472 12.5266 1.03431
1 8.58539 8.60899 10.1736
1 0.22001 8.27601 12.2347
1 8.58946 12.9626 6.79505
1 8.17298 10.8257 2.72235
1 10.4228 11.3726 5.26819
1 2.79728 13.2625 1.66641
1 14.7791 1.31976 5.57278
1 13.9044 11.8557 9.70326
1 5.44218 7.58409 0.649653
1 9.62872 12.8148 0.258183
1 3.62514 11.0237 5.15957
1 7.92876 3.28957 13.0474
1 3.14208 8.46818 6.98775
1 0.28685 12.0516 5.17933
1 7.81142 11.8939 14.8357
1 0.342762 7.89042 9.7181
1 5.5875 1.85114 2.27049
1 11.6423 5.28957 14.2586
1 12.895 13.5988 14.2068
1 10.9894 10.338 7.57248
1 7.12487 1.01652 13.2365
1 0.199254 3.2765 15.2431
1 9.35064 13.1166 2.85944
1 2.52864 14.1983 13.0635
1 13.7792 11.6409 5.66246
1 5.37076 11.2622 10.3398
1 14.2015 4.62492 14.7972
1 12.3383 6.18244 8.22263
1 7.86916 8.40701 14.9186
1 9.8962 2.44655 0.176654
1 16.1547 0.798352 16.1324
1 11.717 0.642838 1.36695
1 9.06118 5.81514 6.14011
1 4.86541 13.4525 8.9863
1 14.8368 0.270572 3.44819
1 1.29678 15.1051 6.26766
1 14.6628 7.87185 4.50951
1 5.35208 5.7355 13.0894
1 3.87463 9.68086 14.58
1 2.21392 1.4541 10.0208
1 10.8624 3.20779 2.6121
1 15.861 10.1274 3.8353
1 6.24304 13.5248 14.2636
1 10.4141 14.6564 4.75019
1 5.61833 14.3341 11.0562
1 15.8083 2.05625 13.3181
1 11.342 11.0265 10.6387
1 12.8394 7.62015 2.17951
1 6.15772 12.8213 2.51527
1 0.298342 12.7949 10.2331
1 1.79901 11.4488 6.85324
1 7.75553 14.9623 13.5208
1 2.01529 13.3467 4.18648
1 16.2892 15.6248 11.7216
1 14.3783 2.70961 11.587
1 0.259609 3.60926 3.42335
1 15.1394 9.61188 14.1397
1 6.45073 4.40958 14.7078
1 12.8587 9.89485 4.07456
1 3.97977 -0.0307531 11.3649
1 12.6109 0.794433 10.4608
1 12.6871 4.72411 5.41668
1 2.10995 6.81744 15.7333
1 4.87452 12.5947 0.362786
1 0.0146398 5.75862 9.01995
1 4.7305 1.7734 8.80234
1 0.83342 15.2975 3.41139
1 8.11633 10.6603 5.87947
1 0.976835 8.89441 0.987258
1 3.79669 8.1979 4.49527
1 3.13321 5.89065 1.3761
1 3.61494 14.4463 6.9856
1 9.56708 4.29645 14.9197
1 3.00311 2.13638 2.54116
1 11.4532 11.5857 2.57598
1 4.45067 13.7044 4.82126
1 7.0812 8.62096 7.20914
1 7.52037 2.07494 4.65743
1 7.60535 10.1328 0.368302
1 6.17033 1.19996 10.6567
1 9.17554 0.430356 8.46287
1 8.11517 3.54917 6.65696
1 10.2942 13.7179 12.9251
1 4.9527 10.1721 7.62269
1 7.50812 2.53299 0.917304
1 6.90033 6.66133 5.64897
1 5.13372 16.2209 7.28773
1 3.04799 0.421829 13.7463
1 1.627 5.01059 5.06993
1 3.70681 4.58052 11.4704
1 2.14261 0.344298 16.0151
1 3.36995 15.804 1.73797
1 10.1442 6.45132 0.74266
1 12.7114 12.5748 7.78825
1 8.21052 0.0702905 10.5369
1 12.1761 3.27453 12.787
1 9.34042 11.6008 12.7051
1 4.30958 6.85911 8.39655
1 4.87329 10.0811 0.834295
1 12.4715 6.18959 10.3911
1 10.761 5.25121 11.7497
1 8.92422 3.89642 10.6096
1 15.1351 4.85495 10.5889
1 3.24932 6.08986 3.70532
1 4.7311 8.5475 11.3352
1 14.866 9.31404 6.79691
1 5.02816 0.80622 15.0139
1 7.9811 16.1727 1.0629
1 11.4241 10.4663 13.5649
1 5.40096 5.17899 4.21672
1 3.43187 10.6601 12.0424
1 3.1031 10.8451 2.61887
1 14.7439 14.2328 6.4262
1 9.41336 8.69476 7.58114
1 0.93901 12.4204 0.391123
1 6.26632 3.92933 8.15856
1 1.70083 13.3952 8.08453
1 13.5811 7.5785 13.8803
1 13.0834 8.91953 8.70638
1 9.47511 12.8508 9.11258
1 14.9904 1.97487 9.26605
1 4.08009 7.57839 14.7537
1 12.6253 2.84031 0.891954
1 11.1772 7.75443 13.2124
1 2.54237 3.91716 13.4475
1 1.3209 4.50626 1.60929
1 10.0956 8.0121 15.1908
1 1.6097 1.83753 12.2945
1 0.355968 1.00215 6.66335
1 14.9532 2.27251 2.02045
1 15.7084 10.9041 1.58441
1 5.77692 11.1347 4.66673
1 15.2943 6.43637 7.00363
