216
Atoms. Timestep: 8000
1 0.233173 13.7161 14.4163
1 0.562167 11.2333 13.6964
1 5.94046 12.6267 7.25064
1 6.37029 6.73642 2.69618
1 15.3391 15.7901 14.0011
1 6.38551 7.87911 12.9154
1 5.34181 2.91417 4.25265
1 4.76533 16.093 3.77433
1 13.785 14.9044 10.6983
1 15.0537 3.73141 5.49826
1 14.4075 8.63137 10.6263
1 2.4944 2.81145 16.0708
1 0.553637 3.72767 7.49809
1 12.8598 15.4302 2.8735
1 10.5389 16.1753 11.742
1 10.6727 8.58053 5.00748
1 2.53853 6.37898 9.82585
1 12.768 7.20572 5.70572
1 6.04671 3.79361 11.121
1 14.8719 12.9805 12.6123
1 2.6063 7.13933 12.2244
1 10.0901 5.55301 4.07422
1 5.05908 5.20106 6.83963
1 6.13686 7.58883 9.65323
1 8.19789 4.90195 1.81099
1 12.0301 13.4727 11.6842
1 10.981 8.49947 10.314
1 9.92181 9.66579 1.67506
1 15.4187 5.56987 0.752861
1 2.97497 3.90867 8.79655
1 1.04805 10.579 11.5076
1 5.69764 9.16026 3.08273
1 13.4619 9.46848 0.794876
1 7.95277 14.1584 11.0863
1 8.71975 6.8449 11.872
1 11.4855 14.1126 9.05161
1 6.17187 10.3888 13.4825
1 0.971912 9.16351 7.69249
1 7.38347 10.5482 11.4729
1 11.3275 9.90524 16.1784
1 4.50737 12.6985 12.6104
1 9.08114 14.8444 15.5809
1 15.2501 8.01146 16.2307
1 13.2334 1.93795 14.794
1 11.7279 4.02405 7.45687
1 10.5591 7.539 2.90287
1 4.79591 3.05295 15.3199
1 8.7893 15.4045 6.57443
1 14.0695 14.6726 0.939692
1 13.6773 10.7371 12.4319
1 5.25477 4.4702 1.13389
1 4.08852 1.53923 5.59515
1 9.64134 2.93396 8.28968
1 1.00602 7.23063 5.54524
1 12.5757 5.32839 0.549368
1 11.7306 12.2458 16.0353
1 0.153164 0.258575 9.12717
1 3.10217 3.65537 6.20153
1 7.30738 5.35039 9.67461
1 13.0883 15.9095 15.3191
1 12.9852 15.504 5.96969
1 14.2685 5.35053 2.90849
1 0.267881 14.7369 1.14107
1 6.8242 16.2518 5.40133
1 7.55274 6.1386 15.9452
1 11.4535 16.1846 8.0436
1 13.1762 2.04715 7.62042
1 9.09549 1.32714 2.92824
1 2.07463 10.2997 15.9044
1 8.11225 8.54556 4.11503
1 9.60193 6.14018 8.55151
1 5.52025 15.5609 0.330318
1 15.0804 14.3377 8.80296
1 1.18644 5.5767 13.7738
1 10.2379 1.87259 13.1625
1 1.65558 8.84766 3.28509
1 15.1961 5.8813 12.7323
1 1.69925 1.14134 4.52872
1 12.4124 13.3354 4.21409
1 7.59651 14.9482 3.10429
1 2.35645 14.8436 10.4533
1 10.5545 0.390254 15.1975
1 13.7309 12.4969 1.03348
1 8.50057 8.55539 10.1007
1 0.218502 8.26199 12.27
1 8.58596 12.9373 6.79795
1 8.11868 10.8065 2.75038
1 10.3487 11.3693 5.24338
1 2.75521 13.1987 1.67525
1 14.6934 1.43619 5.54078
1 13.881 11.708 9.67474
1 5.48582 7.57312 0.54609
1 9.56925 12.809 0.319455
1 3.5601 10.981 5.13816
1 7.95746 3.2723 12.9839
1 3.15147 8.51878 6.91472
1 0.229905 11.9935 5.33495
1 7.87352 11.9154 14.8062
1 0.405649 7.8919 9.67276
1 5.51924 1.86165 2.08348
1 11.5865 5.1505 14.2799
1 12.8887 13.6666 14.1939
1 11.0979 10.43 7.60425
1 7.15506 1.02445 13.2322
1 0.156652 3.30557 15.2505
1 9.29509 12.9913 2.86974
1 2.61917 14.1408 12.9924
1 13.896 11.6906 5.63795
1 5.369 11.3084 10.2789
1 14.234 4.64195 14.7905
1 12.3632 6.16196 8.1771
1 7.81326 8.39597 14.9415
1 9.87507 2.51304 0.138082
1 16.1347 0.863107 16.1581
1 11.7216 0.607046 1.45597
1 9.04112 5.85528 6.20023
1 4.82572 13.3942 9.09653
1 14.8513 0.375437 3.61011
1 1.31302 15.0841 6.2156
1 14.7453 7.91095 4.46768
1 5.42501 5.78055 13.0727
1 3.95309 9.71734 14.6735
1 2.19745 1.42033 10.0319
1 10.8442 3.17128 2.76658
1 16.0062 10.139 3.8765
1 6.34822 13.4948 14.1956
1 10.4619 14.6394 4.6684
1 5.71941 14.3226 11.0724
1 15.8439 2.04824 13.2914
1 11.4078 11.0908 10.6327
1 12.8653 7.61381 2.23541
1 6.26027 12.7124 2.55076
1 0.338387 12.8396 10.2462
1 1.74134 11.4474 6.90055
1 7.74022 15.0117 13.4835
1 2.01674 13.3813 4.33626
1 16.2683 15.5558 11.7312
1 14.328 2.67304 11.5593
1 0.206772 3.6228 3.46919
1 15.1801 9.60982 14.0001
1 6.56617 4.50723 14.6806
1 12.7732 9.8035 4.02879
1 4.05007 0.0734899 11.3085
1 12.6473 0.84112 10.4739
1 12.5481 4.71565 5.42119
1 2.10847 6.79642 15.7201
1 4.84528 12.6219 0.39935
1 0.0107562 5.66563 8.89558
1 4.76756 1.74477 8.82683
1 0.695654 15.3909 3.41992
1 8.07954 10.6015 5.914
1 0.963182 8.90461 1.02724
1 3.78562 8.23439 4.43531
1 3.1714 5.9884 1.39411
1 3.65614 14.5441 6.95193
1 9.62142 4.27974 14.9621
1 3.02607 2.16383 2.44147
1 11.5027 11.5752 2.50753
1 4.52055 13.778 4.76541
1 7.06381 8.56033 7.23673
1 7.4943 2.06084 4.65756
1 7.58801 10.1233 0.48573
1 6.22294 1.30516 10.6822
1 9.17022 0.461173 8.45936
1 8.13667 3.51819 6.6027
1 10.1447 13.819 12.894
1 4.93548 10.1503 7.62098
1 7.54173 2.50745 0.977652
1 6.99459 6.64568 5.6024
1 5.20231 16.2165 7.23623
1 3.03276 0.442761 13.7205
1 1.59752 5.04875 5.09766
1 3.80779 4.67995 11.3598
1 2.20809 0.288084 15.994
1 3.31714 15.8323 1.71579
1 10.169 6.46059 0.626643
1 12.772 12.6052 7.90394
1 8.28488 0.0331659 10.4612
1 12.1833 3.25251 12.8906
1 9.28628 11.5289 12.7158
1 4.32195 6.88592 8.36381
1 4.82816 10.1422 0.823473
1 12.5557 6.06504 10.3587
1 10.8111 5.29929 11.7305
1 9.06871 3.87908 10.6346
1 15.0841 4.73196 10.6592
1 3.26614 5.95498 3.65437
1 4.70774 8.57157 11.2786
1 14.8647 9.23426 6.77176
1 4.95483 0.755256 14.9944
1 7.98803 16.1733 1.05212
1 11.4803 10.4734 13.4737
1 5.28872 5.19644 4.24318
1 3.50152 10.6432 12.0476
1 3.04526 10.8047 2.61525
1 14.6702 14.1975 6.41502
1 9.41806 8.68211 7.53266
1 0.929482 12.4045 0.438464
1 6.2546 3.77924 8.15652
1 1.66751 13.3194 8.12448
1 13.5467 7.54621 13.9223
1 13.0572 8.8599 8.66798
1 9.44871 12.8895 9.25244
1 14.9444 2.01959 9.25531
1 4.10326 7.56293 14.7019
1 12.7464 2.83041 0.966736
1 11.236 7.90923 13.1636
1 2.60475 3.92064 13.4891
1 1.23113 4.57665 1.58455
1 10.0936 8.00014 15.2448
1 1.65118 1.8137 12.3355
1 0.393774 1.02354 6.71964
1 14.8897 2.21618 1.98421
1 15.6732 10.7703 1.56308
1 5.81169 11.1127 4.63917
1 15.2206 6.29274 7.06271
