216
Atoms. Timestep: 8022
1 0.369239 13.5554 14.3906
1 0.727149 11.1005 13.7394
1 5.96905 12.4386 7.05032
1 6.42654 6.59993 2.74437
1 15.3187 15.8128 14.0913
1 6.52809 7.98231 12.8695
1 5.44923 2.98927 4.00533
1 4.74175 16.0179 3.67274
1 13.8808 15.052 10.7482
1 14.8674 3.87989 5.5168
1 14.2344 8.57831 10.6583
1 2.3821 2.76607 16.1195
1 0.523611 3.8397 7.51849
1 12.9002 15.4075 2.84277
1 10.416 16.1163 11.7811
1 10.5953 8.79731 4.89335
1 2.64908 6.3322 9.79261
1 12.7564 7.10196 5.86105
1 5.99195 3.68836 11.0194
1 14.9321 12.8427 12.5601
1 2.39074 7.12412 12.2504
1 10.2724 5.56834 3.90614
1 5.05764 5.09737 6.88041
1 6.24952 7.46318 9.40065
1 8.1748 4.80891 1.67238
1 12.1899 13.4145 11.5684
1 10.7648 8.46516 10.2523
1 10.0047 9.65372 1.6372
1 15.489 5.4133 0.669317
1 3.01743 3.81017 8.81965
1 1.12798 10.4942 11.3291
1 5.68941 9.20437 3.18052
1 13.546 9.48046 0.858433
1 8.00997 13.9821 11.1031
1 8.63605 6.81927 11.7875
1 11.5513 13.9493 9.04187
1 6.09815 10.5079 13.5086
1 0.881926 9.22429 7.69867
1 7.35629 10.4961 11.4267
1 11.4298 9.9347 16.1007
1 4.57118 12.7264 12.7941
1 9.06698 14.8118 15.5249
1 15.4327 8.04195 16.2398
1 13.1666 1.95644 14.8741
1 11.903 3.96761 7.57381
1 10.841 7.70648 2.77874
1 4.5931 3.16186 15.2623
1 8.6856 15.3247 6.57562
1 14.0947 14.7661 1.16617
1 13.6395 10.5636 12.335
1 5.35199 4.41333 1.28644
1 4.09389 1.50718 5.71124
1 9.72962 3.1048 8.32267
1 0.938184 7.38889 5.82407
1 12.5831 5.42625 0.632956
1 11.7097 12.102 16.0637
1 0.186228 0.0702885 9.11048
1 3.08702 3.61068 6.30011
1 7.4157 5.43684 9.82277
1 12.9987 15.8142 15.1341
1 12.9822 15.7811 5.82866
1 14.5134 5.26924 2.8574
1 0.227481 14.832 1.1885
1 6.94936 0.0133558 5.45453
1 7.37322 6.14727 16.1333
1 11.6103 0.0892658 8.00971
1 13.1678 1.94176 7.59444
1 9.15484 1.22875 3.08573
1 1.97961 10.3304 15.8115
1 8.15051 8.58959 4.15165
1 9.78967 6.18532 8.43557
1 5.58784 15.4836 0.339175
1 15.1115 14.4623 8.86536
1 1.14036 5.67472 13.5814
1 10.2535 1.87178 13.1072
1 1.75392 8.69394 3.21864
1 15.0289 5.8983 13.004
1 1.80363 1.31743 4.46896
1 12.4855 13.2359 3.96589
1 7.56042 14.9514 3.09899
1 2.38857 14.6112 10.455
1 10.6672 0.263195 15.3245
1 13.7446 12.5121 1.06092
1 8.59712 8.68474 10.2509
1 0.224984 8.29663 12.2236
1 8.57298 13.0037 6.83671
1 8.20135 10.8954 2.72513
1 10.5173 11.3903 5.29252
1 2.86265 13.3167 1.65973
1 14.7958 1.21036 5.61509
1 13.9309 11.9796 9.77108
1 5.38131 7.56996 0.697274
1 9.63417 12.8199 0.21687
1 3.64108 11.0344 5.19906
1 7.9227 3.29894 13.1096
1 3.1815 8.41778 7.04991
1 0.295357 12.1205 5.03234
1 7.77851 11.8385 14.8709
1 0.292368 7.94564 9.75083
1 5.64827 1.79197 2.3794
1 11.6934 5.44752 14.2609
1 12.8956 13.5208 14.2334
1 10.935 10.3053 7.58975
1 7.04927 1.00127 13.2546
1 0.213371 3.26871 15.2436
1 9.40239 13.2446 2.8488
1 2.39861 14.2576 13.1561
1 13.6854 11.6007 5.68722
1 5.3526 11.1969 10.3398
1 14.1796 4.5817 14.8
1 12.3001 6.25018 8.24052
1 7.90042 8.40278 14.9278
1 9.85468 2.40963 0.181386
1 16.1108 0.728492 16.1351
1 11.6992 0.628276 1.31561
1 9.05908 5.74854 6.07621
1 4.86894 13.5165 8.9064
1 14.8616 0.192702 3.28793
1 1.20735 15.1033 6.31111
1 14.5862 7.82385 4.49444
1 5.24586 5.71081 13.1264
1 3.80955 9.70371 14.4545
1 2.24536 1.49615 9.98207
1 10.8183 3.29662 2.48809
1 15.7184 10.1111 3.80449
1 6.06532 13.555 14.415
1 10.3607 14.661 4.84472
1 5.49345 14.3331 11.0534
1 15.7393 2.03022 13.3379
1 11.2655 10.9708 10.6127
1 12.8886 7.60887 2.14137
1 6.0575 12.9392 2.51487
1 0.229556 12.7376 10.251
1 1.85418 11.4044 6.80979
1 7.80639 14.928 13.5416
1 2.0316 13.313 4.00184
1 0.0505157 15.67 11.6986
1 14.3954 2.7493 11.6004
1 0.319503 3.56948 3.41867
1 15.0909 9.59729 14.2762
1 6.37471 4.33404 14.6937
1 12.9445 9.99016 4.10533
1 3.96758 16.1615 11.4149
1 12.5644 0.733052 10.4318
1 12.8077 4.74863 5.35041
1 2.06299 6.86658 15.7427
1 4.93206 12.6076 0.335753
1 0.0608231 5.83439 9.11288
1 4.69587 1.83309 8.77501
1 0.984687 15.2481 3.39811
1 8.11028 10.7072 5.80555
1 1.00312 8.84347 0.925347
1 3.81942 8.19902 4.57355
1 3.15092 5.78362 1.35549
1 3.61983 14.3672 7.0063
1 9.48915 4.31699 14.8921
1 2.93114 2.1278 2.59647
1 11.4314 11.5925 2.67373
1 4.38036 13.6397 4.87065
1 7.03743 8.68846 7.19946
1 7.58247 2.11545 4.70105
1 7.57059 10.1534 0.206962
1 6.07923 1.10816 10.6734
1 9.20935 0.451039 8.44651
1 8.0887 3.59288 6.69721
1 10.4017 13.6702 12.9921
1 4.99905 10.2035 7.63789
1 7.49674 2.55385 0.833658
1 6.83757 6.71359 5.73373
1 5.06495 16.2486 7.32979
1 3.05491 0.358451 13.7541
1 1.63343 4.97209 5.02181
1 3.606 4.48353 11.5798
1 2.08382 0.416967 16.0547
1 3.4127 15.7502 1.73748
1 10.1323 6.40229 0.848685
1 12.6598 12.5007 7.64248
1 8.17933 0.0917566 10.62
1 12.1882 3.26346 12.6802
1 9.38689 11.6615 12.6972
1 4.28303 6.83593 8.3796
1 4.93549 10.0426 0.82943
1 12.441 6.36131 10.4872
1 10.6941 5.19795 11.7356
1 8.85327 3.89517 10.5927
1 15.081 4.98086 10.5873
1 3.24086 6.21257 3.76801
1 4.725 8.49678 11.3759
1 14.8419 9.40292 6.82408
1 5.16665 0.887071 14.9621
1 7.9402 16.1629 1.04758
1 11.3618 10.441 13.6431
1 5.46572 5.1781 4.20257
1 3.33247 10.6389 12.043
1 3.16369 10.8719 2.62262
1 14.862 14.2182 6.43734
1 9.40442 8.64034 7.64511
1 0.945297 12.4554 0.326374
1 6.2983 4.01713 8.1641
1 1.72092 13.4616 8.09434
1 13.6333 7.61397 13.8195
1 13.0879 9.00894 8.69375
1 9.50289 12.7874 8.98693
1 15.0258 1.97012 9.26279
1 4.06739 7.51146 14.7876
1 12.5903 2.87971 0.813186
1 11.1182 7.60891 13.2047
1 2.52065 3.8392 13.3946
1 1.41844 4.39279 1.58417
1 10.1031 8.02682 15.1537
1 1.57675 1.88161 12.283
1 0.360481 1.01237 6.64955
1 15.0137 2.30782 2.02613
1 15.7085 11.046 1.59883
1 5.82132 11.1849 4.67138
1 15.3444 6.57286 6.93165
