216
Atoms. Timestep: 8027
1 0.389839 13.5428 14.3866
1 0.744088 11.0825 13.7462
1 5.9839 12.4154 7.02432
1 6.44775 6.58989 2.74944
1 15.3145 15.8177 14.1043
1 6.55127 7.9798 12.8641
1 5.46081 2.99957 4.01032
1 4.74864 15.998 3.67271
1 13.8911 15.0699 10.7615
1 14.8619 3.89388 5.5234
1 14.2064 8.57258 10.6724
1 2.37419 2.76276 16.1385
1 0.514408 3.83986 7.52021
1 12.8906 15.4057 2.85645
1 10.4036 16.1127 11.7825
1 10.5976 8.81684 4.89541
1 2.65466 6.3176 9.80056
1 12.7449 7.09538 5.88054
1 5.97767 3.66883 11.0204
1 14.9356 12.8327 12.5509
1 2.38396 7.12789 12.2503
1 10.2962 5.5551 3.88572
1 5.04077 5.10074 6.8773
1 6.26451 7.46278 9.37802
1 8.19105 4.80216 1.67171
1 12.2151 13.401 11.5419
1 10.7717 8.46247 10.2539
1 10.0131 9.64918 1.63953
1 15.5048 5.4069 0.652648
1 3.01506 3.79634 8.82629
1 1.13512 10.4923 11.3106
1 5.68423 9.21122 3.19891
1 13.5624 9.47946 0.86666
1 8.02444 13.9606 11.1022
1 8.62188 6.81993 11.7831
1 11.5536 13.9435 9.04514
1 6.09455 10.5219 13.5229
1 0.869145 9.23707 7.70202
1 7.3663 10.4912 11.416
1 11.4466 9.92274 16.0831
1 4.5741 12.7439 12.8091
1 9.06759 14.8197 15.5193
1 15.4404 8.03517 16.2411
1 13.1692 1.97654 14.8726
1 11.9204 3.95359 7.58244
1 10.8583 7.72211 2.76229
1 4.56129 3.16829 15.2596
1 8.67886 15.3157 6.57025
1 14.1042 14.7722 1.15812
1 13.6322 10.5446 12.3204
1 5.34259 4.40577 1.29639
1 4.08705 1.5031 5.71005
1 9.73514 3.11541 8.33098
1 0.931129 7.40208 5.83939
1 12.5744 5.43631 0.644476
1 11.7194 12.1021 16.0544
1 0.200179 0.0578434 9.1075
1 3.09197 3.61064 6.31677
1 7.4276 5.4608 9.83047
1 13.0022 15.7859 15.1211
1 12.9737 15.8044 5.80916
1 14.5326 5.26741 2.86435
1 0.219452 14.8428 1.18699
1 6.95868 0.00962791 5.45627
1 7.35653 6.15416 16.1357
1 11.6296 0.101735 8.01484
1 13.1734 1.93081 7.59502
1 9.16784 1.22589 3.09523
1 1.97341 10.3447 15.798
1 8.14866 8.59333 4.15749
1 9.80888 6.19313 8.42211
1 5.59573 15.4682 0.344817
1 15.1179 14.4667 8.86452
1 1.13223 5.69031 13.5781
1 10.2522 1.86578 13.1129
1 1.75429 8.68883 3.21816
1 15.0191 5.89994 13.0234
1 1.81317 1.33672 4.46232
1 12.4955 13.2325 3.94746
1 7.54969 14.948 3.10466
1 2.37842 14.5826 10.4523
1 10.6657 0.252115 15.326
1 13.7394 12.5044 1.07163
1 8.58211 8.70063 10.2647
1 0.225004 8.3041 12.2262
1 8.56646 13.0108 6.8492
1 8.20103 10.916 2.72791
1 10.5343 11.3973 5.2997
1 2.87786 13.3217 1.65408
1 14.785 1.19583 5.61835
1 13.9341 11.996 9.78558
1 5.36637 7.56316 0.69666
1 9.62597 12.8202 0.214848
1 3.63524 11.0281 5.20848
1 7.92528 3.2972 13.1181
1 3.19642 8.41148 7.05809
1 0.288125 12.1332 5.01171
1 7.77754 11.828 14.8754
1 0.285019 7.96709 9.75442
1 5.65764 1.76796 2.37891
1 11.7001 5.47129 14.2678
1 12.8944 13.5048 14.2403
1 10.9352 10.312 7.60227
1 7.03062 0.997317 13.2598
1 0.21056 3.27057 15.2434
1 9.40955 13.2659 2.84597
1 2.3718 14.2659 13.1751
1 13.6766 11.5984 5.69145
1 5.34417 11.1837 10.3303
1 14.1764 4.56858 14.8001
1 12.2914 6.26803 8.23918
1 7.90015 8.39764 14.9344
1 9.83431 2.40976 0.174788
1 16.0912 0.716633 16.1413
1 11.6946 0.616218 1.31623
1 9.05443 5.73389 6.06451
1 4.86599 13.5255 8.89818
1 14.8769 0.190001 3.26758
1 1.17795 15.1001 6.31322
1 14.5724 7.81298 4.48011
1 5.22207 5.71242 13.1356
1 3.80065 9.7154 14.4285
1 2.25294 1.50103 9.97323
1 10.7982 3.32097 2.47284
1 15.6979 10.1085 3.80051
1 6.02836 13.5623 14.4556
1 10.3547 14.659 4.8618
1 5.47372 14.327 11.0557
1 15.7226 2.01999 13.34
1 11.2509 10.9624 10.6037
1 12.9149 7.60327 2.13812
1 6.04193 12.9606 2.52181
1 0.214364 12.7251 10.2597
1 1.86073 11.3927 6.80254
1 7.81789 14.9229 13.5415
1 2.03848 13.306 3.96724
1 0.0584443 15.6736 11.695
1 14.3923 2.75714 11.5965
1 0.330383 3.55899 3.42686
1 15.082 9.59416 14.2981
1 6.36984 4.32801 14.6861
1 12.9586 10.0026 4.10643
1 3.97181 16.1562 11.4205
1 12.5549 0.721961 10.4252
1 12.819 4.75681 5.3318
1 2.04697 6.87685 15.7445
1 4.94558 12.6146 0.333676
1 0.0779621 5.84406 9.11789
1 4.6929 1.84855 8.77163
1 1.01237 15.2522 3.39853
1 8.10492 10.712 5.78666
1 1.01222 8.8304 0.913095
1 3.82675 8.20988 4.59238
1 3.16378 5.76662 1.35316
1 3.62871 14.359 7.00703
1 9.47448 4.32153 14.8911
1 2.91621 2.12806 2.59686
1 11.4303 11.5913 2.68882
1 4.36669 13.633 4.87619
1 7.02208 8.70174 7.20065
1 7.59936 2.12672 4.7169
1 7.55755 10.1583 0.177941
1 6.0557 1.09625 10.6832
1 9.22006 0.463035 8.4413
1 8.08493 3.60166 6.7013
1 10.4156 13.6739 13.0093
1 5.0104 10.2092 7.64466
1 7.49763 2.55394 0.815112
1 6.83402 6.7279 5.75387
1 5.05445 16.2559 7.33339
1 3.05502 0.343497 13.755
1 1.63058 4.96779 5.01271
1 3.59253 4.46987 11.5935
1 2.08012 0.431755 16.0634
1 3.41802 15.7387 1.73182
1 10.1314 6.38829 0.861441
1 12.6523 12.4807 7.61526
1 8.18241 0.0903845 10.6328
1 12.1928 3.25748 12.6629
1 9.39159 11.6677 12.6955
1 4.27814 6.83117 8.36815
1 4.94856 10.0401 0.824519
1 12.4444 6.39826 10.5137
1 10.6813 5.18585 11.7268
1 8.85526 3.88883 10.5919
1 15.0507 5.00114 10.6032
1 3.2409 6.22528 3.77687
1 4.71916 8.48407 11.3788
1 14.8315 9.42028 6.82897
1 5.1967 0.903723 14.9429
1 7.9284 16.1613 1.04158
1 11.3517 10.4341 13.6493
1 5.46598 5.18398 4.20479
1 3.31584 10.63 12.0436
1 3.17432 10.8713 2.62334
1 14.8865 14.2089 6.43768
1 9.39904 8.61913 7.65702
1 0.947843 12.4674 0.315479
1 6.30814 4.01945 8.16902
1 1.72063 13.4691 8.10396
1 13.6445 7.62423 13.8034
1 13.0847 9.03047 8.68168
1 9.50902 12.771 8.97039
1 15.0298 1.97587 9.26008
1 4.06802 7.4882 14.7893
1 12.602 2.89148 0.801086
1 11.1089 7.58824 13.1917
1 2.51956 3.81469 13.3884
1 1.43523 4.36703 1.57224
1 10.1042 8.02829 15.1549
1 1.57384 1.88956 12.2857
1 0.372386 1.0199 6.65589
1 15.0212 2.3097 2.01986
1 15.7029 11.0695 1.59878
1 5.84375 11.1979 4.66343
1 15.3492 6.5906 6.92189
