216
Atoms. Timestep: 8003
1 0.246539 13.6817 14.4104
1 0.591029 11.2094 13.6977
1 5.93199 12.5983 7.22429
1 6.36474 6.71187 2.70778
1 15.3389 15.7866 14.0117
1 6.40212 7.91297 12.9097
1 5.35633 2.92396 4.18316
1 4.75191 16.0964 3.74481
1 13.8032 14.9301 10.701
1 15.0111 3.75538 5.49786
1 14.3852 8.6176 10.6231
1 2.46946 2.80087 16.0638
1 0.552254 3.76604 7.50222
1 12.872 15.4256 2.85306
1 10.5159 16.1575 11.7543
1 10.6463 8.62179 4.96577
1 2.56379 6.37777 9.81123
1 12.7771 7.18404 5.73104
1 6.04237 3.78256 11.0887
1 14.8883 12.9499 12.6105
1 2.54975 7.13069 12.2292
1 10.1202 5.57774 4.04674
1 5.07554 5.16828 6.85274
1 6.15265 7.55428 9.60213
1 8.17728 4.87935 1.76892
1 12.0505 13.4715 11.6775
1 10.911 8.49344 10.2937
1 9.9345 9.67085 1.65805
1 15.4239 5.52733 0.74553
1 2.98847 3.89738 8.79761
1 1.06077 10.5545 11.4724
1 5.70359 9.16447 3.09269
1 13.471 9.47418 0.802733
1 7.95 14.129 11.0936
1 8.70725 6.83667 11.8519
1 11.5028 14.0718 9.04237
1 6.15212 10.409 13.472
1 0.960599 9.16934 7.69218
1 7.36293 10.5396 11.4749
1 11.3407 9.92509 16.1824
1 4.51891 12.6839 12.6462
1 9.07693 14.8245 15.5715
1 15.2957 8.02713 16.2336
1 13.2083 1.91917 14.8168
1 11.7655 4.02589 7.48057
1 10.6248 7.5746 2.88905
1 4.76565 3.07745 15.304
1 8.7665 15.3934 6.58565
1 14.0653 14.6865 1.00719
1 13.67 10.703 12.42
1 5.29143 4.45884 1.16584
1 4.1029 1.53618 5.62667
1 9.662 2.97513 8.29006
1 1.00066 7.26171 5.60982
1 12.5888 5.34805 0.562216
1 11.7142 12.2051 16.06
1 0.151645 0.217679 9.12547
1 3.09162 3.63974 6.21106
1 7.32761 5.35155 9.71016
1 13.0594 15.9121 15.2767
1 12.9974 15.5535 5.9457
1 14.3229 5.32819 2.88321
1 0.267438 14.7498 1.15722
1 6.84578 16.2686 5.41561
1 7.51604 6.13441 15.9932
1 11.4751 16.2199 8.02967
1 13.1721 2.03169 7.6138
1 9.09964 1.2989 2.96302
1 2.0561 10.2914 15.8927
1 8.1258 8.55456 4.11774
1 9.63534 6.1444 8.52825
1 5.53153 15.5569 0.323246
1 15.0798 14.3692 8.82005
1 1.18333 5.5837 13.7206
1 10.245 1.87945 13.1406
1 1.68286 8.80883 3.26348
1 15.1555 5.88175 12.7911
1 1.71751 1.16777 4.52343
1 12.4254 13.3152 4.15738
1 7.59674 14.9551 3.09545
1 2.37546 14.8064 10.4565
1 10.5886 0.361927 15.2328
1 13.7392 12.5146 1.03206
1 8.54138 8.57693 10.1321
1 0.218317 8.26875 12.2527
1 8.58911 12.9461 6.79176
1 8.14388 10.8107 2.73465
1 10.3787 11.3699 5.25511
1 2.77141 13.2267 1.6694
1 14.7355 1.38568 5.5506
1 13.8901 11.7751 9.68248
1 5.46755 7.58004 0.596223
1 9.59955 12.8116 0.291639
1 3.59235 11.0013 5.14619
1 7.94273 3.27986 13.0115
1 3.14342 8.49747 6.94749
1 0.258762 12.0174 5.26739
1 7.84354 11.9104 14.8177
1 0.376936 7.88729 9.69372
1 5.55036 1.85884 2.16893
1 11.6104 5.2071 14.2697
1 12.8921 13.6374 14.1986
1 11.0463 10.3857 7.58653
1 7.14659 1.02149 13.2331
1 0.177448 3.29096 15.2463
1 9.31882 13.0454 2.86472
1 2.58386 14.1645 13.0218
1 13.8439 11.6693 5.64851
1 5.37075 11.291 10.3109
1 14.2182 4.63578 14.794
1 12.3533 6.16606 8.19919
1 7.83934 8.40137 14.9286
1 9.88732 2.4826 0.156532
1 16.1484 0.835271 16.1446
1 11.7218 0.625273 1.41554
1 9.05128 5.8407 6.17425
1 4.84736 13.4183 9.04597
1 14.844 0.329843 3.54244
1 1.31143 15.0961 6.23742
1 14.7078 7.89445 4.48981
1 5.39607 5.76013 13.078
1 3.91727 9.69603 14.6358
1 2.20336 1.4328 10.0302
1 10.8567 3.18343 2.69764
1 15.944 10.1347 3.85736
1 6.31057 13.5089 14.2185
1 10.4437 14.6476 4.70271
1 5.67992 14.3272 11.0644
1 15.8316 2.05485 13.3037
1 11.3803 11.0617 10.6387
1 12.8498 7.61792 2.20939
1 6.21627 12.7587 2.53268
1 0.324019 12.8212 10.2377
1 1.76596 11.4536 6.87911
1 7.74276 14.9881 13.5005
1 2.01497 13.3659 4.2749
1 16.2767 15.5879 11.7293
1 14.3529 2.68922 11.5709
1 0.229308 3.6194 3.44665
1 15.1632 9.61313 14.0613
1 6.51338 4.46423 14.6966
1 12.8103 9.84133 4.04986
1 4.01303 0.0273443 11.3328
1 12.6325 0.822959 10.4699
1 12.6085 4.71818 5.42648
1 2.11331 6.80229 15.7264
1 4.8551 12.6057 0.382491
1 0.00976244 5.7083 8.94912
1 4.75194 1.75458 8.81746
1 0.754682 15.348 3.41792
1 8.10009 10.6281 5.90228
1 0.968712 8.90493 1.01297
1 3.79014 8.2172 4.46082
1 3.15002 5.94746 1.3874
1 3.63445 14.5008 6.96737
1 9.60099 4.28674 14.9428
1 3.02123 2.15012 2.48838
1 11.478 11.5797 2.53262
1 4.48938 13.7464 4.78974
1 7.07773 8.58651 7.22306
1 7.50294 2.06475 4.65436
1 7.60093 10.1264 0.440162
1 6.20205 1.25862 10.6671
1 9.16996 0.443034 8.46334
1 8.12812 3.53038 6.62735
1 10.2142 13.7714 12.9047
1 4.93974 10.1584 7.62104
1 7.52485 2.5175 0.953062
1 6.95165 6.64886 5.61938
1 5.17273 16.2154 7.2589
1 3.04024 0.438807 13.7346
1 1.61222 5.03335 5.08821
1 3.76488 4.63739 11.4065
1 2.18138 0.310919 16.0011
1 3.34093 15.8228 1.72646
1 10.1564 6.46079 0.676668
1 12.7453 12.5956 7.85688
1 8.24924 0.0493507 10.4926
1 12.1786 3.26572 12.8461
1 9.30967 11.5602 12.7104
1 4.31864 6.87313 8.38206
1 4.84583 10.1137 0.828731
1 12.5135 6.11559 10.3674
1 10.791 5.27775 11.7413
1 9.00045 3.88695 10.6233
1 15.1142 4.78385 10.6251
1 3.25858 6.0123 3.67404
1 4.72048 8.56317 11.3036
1 14.8666 9.26887 6.78271
1 4.97934 0.774324 15.0096
1 7.98849 16.1747 1.05929
1 11.457 10.4721 13.513
1 5.34043 5.18834 4.23132
1 3.47503 10.6542 12.0446
1 3.07005 10.8222 2.61682
1 14.6968 14.218 6.41938
1 9.41468 8.69268 7.55192
1 0.934868 12.4109 0.420324
1 6.25881 3.84883 8.15874
1 1.68239 13.352 8.10272
1 13.56 7.56188 13.9048
1 13.0703 8.8839 8.68879
1 9.46046 12.8743 9.19077
1 14.9651 1.99654 9.26161
1 4.09311 7.57697 14.7257
1 12.6884 2.83287 0.934729
1 11.2108 7.84153 13.1891
1 2.57244 3.92592 13.4735
1 1.26921 4.54957 1.59983
1 10.0933 8.00415 15.2223
1 1.6327 1.82121 12.315
1 0.375654 1.01134 6.69234
1 14.9165 2.24254 2.0019
1 15.6917 10.8271 1.57229
1 5.79113 11.1193 4.65105
1 15.256 6.35426 7.04054
