216
Atoms. Timestep: 8026
1 0.386239 13.5449 14.3874
1 0.741244 11.0858 13.7451
1 5.98105 12.4194 7.0288
1 6.44362 6.59139 2.74853
1 15.3153 15.8169 14.102
1 6.54705 7.98056 12.865
1 5.45888 2.99787 4.00851
1 4.74716 16.0017 3.67241
1 13.8893 15.0667 10.7589
1 14.8623 3.89162 5.52209
1 14.2115 8.57366 10.6696
1 2.37547 2.76333 16.1349
1 0.51621 3.84008 7.51993
1 12.8928 15.406 2.85356
1 10.4057 16.1134 11.7823
1 10.5969 8.81362 4.89474
1 2.65391 6.32046 9.7988
1 12.7471 7.09634 5.87708
1 5.98038 3.67242 11.02
1 14.935 12.8343 12.5524
1 2.38465 7.12708 12.2504
1 10.2919 5.5577 3.88928
1 5.04412 5.09976 6.87807
1 6.2619 7.46241 9.38184
1 8.18767 4.80326 1.67146
1 12.2105 13.4035 11.5469
1 10.7697 8.46287 10.2534
1 10.0117 9.64995 1.63903
1 15.5019 5.40776 0.65574
1 3.01573 3.79876 8.82499
1 1.13401 10.4925 11.3138
1 5.6852 9.21004 3.19553
1 13.5594 9.47968 0.865244
1 8.02178 13.9644 11.1025
1 8.62452 6.81969 11.7837
1 11.5533 13.9442 9.04453
1 6.09511 10.5195 13.5203
1 0.871397 9.23465 7.70136
1 7.3643 10.492 11.4179
1 11.4435 9.92524 16.0862
1 4.5738 12.7406 12.8067
1 9.06742 14.8181 15.5202
1 15.4394 8.03665 16.2408
1 13.1686 1.97268 14.8732
1 11.9173 3.95615 7.58109
1 10.8557 7.71942 2.76509
1 4.56712 3.16732 15.2601
1 8.67988 15.3172 6.57122
1 14.1025 14.7714 1.16053
1 13.6336 10.548 12.323
1 5.34477 4.40718 1.29492
1 4.08835 1.5038 5.71074
1 9.7343 3.11375 8.32942
1 0.932168 7.39989 5.8372
1 12.5761 5.43455 0.642407
1 11.7174 12.1016 16.0562
1 0.19739 0.0597206 9.10804
1 3.09098 3.61054 6.31374
1 7.42549 5.45627 9.82934
1 13.0012 15.7913 15.1232
1 12.9753 15.8007 5.81272
1 14.5294 5.26753 2.86287
1 0.220841 14.841 1.18743
1 6.95731 0.0103921 5.4561
1 7.3594 6.15281 16.1359
1 11.6263 0.0998322 8.01366
1 13.1722 1.93258 7.59478
1 9.16539 1.2262 3.09385
1 1.97432 10.342 15.8003
1 8.14913 8.59273 4.15647
1 9.80564 6.19172 8.42454
1 5.59436 15.471 0.343782
1 15.1168 14.4662 8.86492
1 1.13368 5.68763 13.5782
1 10.2525 1.86698 13.1116
1 1.75455 8.68937 3.2181
1 15.0206 5.89972 13.0204
1 1.81164 1.3335 4.46333
1 12.4937 13.2328 3.95047
1 7.55174 14.9486 3.10354
1 2.38057 14.5876 10.4529
1 10.6663 0.253954 15.3261
1 13.7405 12.5058 1.06949
1 8.58542 8.69786 10.2623
1 0.225072 8.30261 12.2256
1 8.56774 13.0096 6.84689
1 8.20131 10.9121 2.72743
1 10.5314 11.3959 5.29827
1 2.87511 13.3211 1.65536
1 14.7874 1.19803 5.61805
1 13.9337 11.9935 9.7831
1 5.36913 7.56451 0.697115
1 9.62774 12.8202 0.214935
1 3.63657 11.0296 5.2068
1 7.92468 3.29769 13.1169
1 3.19356 8.41238 7.05684
1 0.289738 12.131 5.01493
1 7.77749 11.8297 14.8747
1 0.286243 7.96289 9.75389
1 5.65612 1.7727 2.37987
1 11.699 5.46755 14.2663
1 12.8947 13.5076 14.239
1 10.9348 10.3103 7.5997
1 7.03397 0.998044 13.2589
1 0.211266 3.27013 15.2435
1 9.40842 13.2624 2.84651
1 2.37647 14.2646 13.1718
1 13.6777 11.5985 5.69074
1 5.34588 11.186 10.3323
1 14.1769 4.57105 14.8001
1 12.2929 6.26477 8.23957
1 7.90048 8.39875 14.9331
1 9.83831 2.40946 0.176239
1 16.0951 0.718587 16.14
1 11.6955 0.618615 1.31568
1 9.0554 5.73649 6.06653
1 4.86659 13.5242 8.89933
1 14.8738 0.189886 3.27061
1 1.18356 15.1008 6.31318
1 14.5748 7.81498 4.48308
1 5.22635 5.71183 13.1339
1 3.80205 9.71316 14.4331
1 2.25158 1.50039 9.97475
1 10.8022 3.31649 2.47521
1 15.7011 10.1089 3.80114
1 6.03476 13.561 14.4481
1 10.3555 14.6595 4.85891
1 5.47689 14.3284 11.0552
1 15.7257 2.02199 13.3397
1 11.2535 10.9638 10.6054
1 12.9096 7.6044 2.13851
1 6.04449 12.9569 2.5203
1 0.217055 12.7274 10.2579
1 1.85982 11.3948 6.80376
1 7.8159 14.9238 13.5417
1 2.03711 13.3072 3.97316
1 0.0569793 15.6732 11.6955
1 14.3931 2.75576 11.5975
1 0.328545 3.56091 3.42505
1 15.0835 9.59467 14.2945
1 6.37031 4.32868 14.6875
1 12.9562 10.0007 4.10648
1 3.97091 16.1567 11.4197
1 12.5565 0.723829 10.4264
1 12.8176 4.75521 5.33523
1 2.05002 6.87512 15.7442
1 4.94316 12.6133 0.333865
1 0.0746417 5.84261 9.11755
1 4.6932 1.84571 8.77212
1 1.00762 15.2508 3.39827
1 8.10592 10.7114 5.79011
1 1.01041 8.83275 0.915218
1 3.82533 8.2075 4.5889
1 3.16118 5.76937 1.35348
1 3.62688 14.3601 7.00704
1 9.47697 4.3207 14.8911
1 2.91865 2.128 2.59724
1 11.4305 11.5917 2.68649
1 4.36911 13.6339 4.87543
1 7.02496 8.69941 7.20033
1 7.59625 2.12463 4.71385
1 7.56003 10.1574 0.182737
1 6.06002 1.09807 10.6812
1 9.21803 0.460633 8.44228
1 8.08549 3.60014 6.70073
1 10.4134 13.6727 13.0062
1 5.00836 10.2082 7.64328
1 7.49739 2.55411 0.818444
1 6.83428 6.72525 5.75025
1 5.05614 16.2546 7.33299
1 3.05504 0.346149 13.7548
1 1.63123 4.96838 5.01422
1 3.59454 4.472 11.5915
1 2.08038 0.429157 16.0619
1 3.41721 15.7407 1.73305
1 10.1315 6.3909 0.859595
1 12.6536 12.4844 7.61989
1 8.18151 0.0908714 10.6308
1 12.192 3.25864 12.6657
1 9.39097 11.6669 12.6958
1 4.27895 6.83204 8.37044
1 4.94623 10.0404 0.825548
1 12.4434 6.39171 10.5088
1 10.6834 5.18808 11.7286
1 8.85431 3.89023 10.5919
1 15.0568 4.99773 10.5998
1 3.24084 6.2236 3.77553
1 4.72034 8.48638 11.3785
1 14.8336 9.41725 6.82814
1 5.19145 0.900841 14.9466
1 7.93059 16.1616 1.0427
1 11.3534 10.4354 13.6487
1 5.46647 5.18263 4.20415
1 3.31848 10.6317 12.0435
1 3.17251 10.8717 2.62321
1 14.8822 14.2107 6.43774
1 9.40016 8.62321 7.65501
1 0.947306 12.465 0.317231
1 6.3063 4.01962 8.16796
1 1.72086 13.4681 8.10202
1 13.6425 7.62224 13.8064
1 13.0854 9.02653 8.68418
1 9.50789 12.774 8.9729
1 15.0292 1.97462 9.26064
1 4.0678 7.49257 14.7892
1 12.5992 2.88932 0.802988
1 11.1105 7.59147 13.1944
1 2.51974 3.81928 13.3892
1 1.43241 4.37161 1.57455
1 10.1041 8.02812 15.1543
1 1.57419 1.88829 12.2851
1 0.369843 1.01834 6.65443
1 15.0201 2.30958 2.02129
1 15.7041 11.0656 1.59892
1 5.83933 11.1955 4.66527
1 15.3486 6.58793 6.92335
