216
Atoms. Timestep: 6000
1 0.874928 15.1735 14.6498
1 0.409665 11.4263 13.522
1 5.78289 12.4364 6.44395
1 7.35406 6.40926 1.9335
1 15.279 15.7365 13.4099
1 8.03301 8.42137 12.8424
1 3.48109 5.02949 3.59849
1 3.69316 0.021342 3.02386
1 13.6466 13.4192 10.7106
1 15.0007 2.31833 6.54566
1 14.3262 8.10915 9.69877
1 3.13001 3.2661 0.867815
1 1.35459 2.91898 8.33697
1 13.0862 0.282604 3.66617
1 10.9587 15.2719 11.4094
1 13.2973 8.71714 3.77713
1 1.87874 6.63465 9.26934
1 12.3902 6.98872 4.81032
1 6.27679 3.78128 10.475
1 14.9558 12.6217 14.707
1 2.59239 6.00481 11.4514
1 10.1723 6.52911 3.9173
1 4.11698 4.95806 5.88751
1 6.2845 7.42873 9.31048
1 10.7473 5.08017 2.19741
1 12.2691 13.6222 12.3972
1 10.9828 10.039 11.1238
1 10.0597 9.8553 2.13818
1 2.39603 7.04118 0.921011
1 2.97812 2.3832 9.81728
1 3.77678 9.4517 11.244
1 4.58816 10.0268 2.79706
1 14.0407 10.0861 1.08568
1 7.57397 14.4548 10.5592
1 9.7269 8.20076 11.1283
1 10.6107 11.255 9.22569
1 7.06883 10.6998 12.4631
1 15.9479 8.82164 6.10029
1 6.86154 10.9798 10.2031
1 9.43149 10.3829 16.1548
1 4.35353 13.1395 13.0956
1 8.85091 0.134842 16.2442
1 15.5927 8.3443 0.91532
1 12.9233 3.44914 14.779
1 12.4037 2.6417 7.43344
1 8.63905 8.25195 3.23319
1 5.62679 3.45276 14.4402
1 8.53616 15.2455 6.38747
1 14.0915 15.7104 1.74268
1 13.4966 10.9143 15.2324
1 6.67981 3.17807 1.3752
1 3.09433 0.643777 5.68977
1 10.1245 2.51398 7.3959
1 16.024 6.05479 5.60734
1 14.3168 6.4403 0.776304
1 11.5256 13.6227 0.335377
1 0.136393 0.943495 8.31189
1 2.6641 2.96999 6.35549
1 7.42929 5.35613 8.89299
1 12.5869 15.7675 15.8864
1 12.7834 13.9145 6.08112
1 14.4605 4.76612 2.2487
1 15.4723 13.8123 2.0079
1 6.51514 16.3285 4.98946
1 8.62847 4.56748 1.00615
1 12.0951 13.0132 8.63652
1 13.087 0.526867 8.49283
1 9.82499 1.42037 3.8599
1 1.9863 10.5251 15.0496
1 4.37383 7.96773 4.20365
1 9.64843 6.37141 7.26396
1 4.8912 0.379978 15.5333
1 15.7879 13.9503 8.52735
1 2.56294 5.10416 14.0432
1 11.4292 0.868687 12.6708
1 1.15588 8.18279 2.44666
1 0.177123 6.05619 12.5264
1 1.09733 2.24077 3.56938
1 12.0026 14.6564 4.04436
1 6.11791 15.8296 2.70102
1 1.37803 14.8609 11.2869
1 10.8714 0.780968 15.0019
1 11.9652 12.9781 2.48294
1 7.87712 8.88723 9.46973
1 1.31866 9.11758 11.5737
1 8.01835 12.9033 7.05369
1 7.91642 12.1159 2.69796
1 8.7722 11.1231 5.59938
1 2.12311 11.7899 0.609145
1 14.3732 15.2223 7.05327
1 13.1814 9.52891 11.2647
1 6.9694 7.75408 -0.0947807
1 9.26108 14.4347 0.441393
1 2.14411 10.8797 6.55534
1 9.51086 4.12758 12.6466
1 2.20649 8.22495 6.07745
1 1.73122 11.8127 4.37635
1 7.39501 13.261 15.3463
1 0.537439 8.39781 9.47597
1 5.9333 3.40067 3.86489
1 12.1647 5.18331 12.1735
1 13.5576 14.172 14.147
1 10.6446 9.93907 7.22843
1 9.22873 1.66838 12.107
1 0.199188 4.75316 14.6447
1 8.31343 14.6586 2.5445
1 1.83697 13.3925 13.2057
1 13.7718 11.8639 5.87092
1 4.49106 10.8593 9.5247
1 14.1625 5.6791 14.8907
1 12.5181 5.19052 8.22677
1 8.90325 8.45018 15.1553
1 11.0112 2.99396 15.9629
1 14.3161 1.2232 14.9692
1 11.9279 2.42185 3.44972
1 8.91721 5.24029 5.3986
1 4.38724 13.1417 9.60901
1 14.9212 0.400697 5.15454
1 2.01215 13.1695 7.09543
1 15.4809 9.47908 3.94801
1 6.41502 6.54799 12.711
1 4.12138 9.68387 14.8114
1 2.54548 0.519447 11.5992
1 13.0496 3.48727 5.22556
1 15.4972 11.876 4.21771
1 5.20096 14.3271 15.2272
1 9.66792 15.2512 4.39232
1 5.34338 14.2855 11.4189
1 15.9205 2.62672 13.7921
1 10.6534 11.863 12.8502
1 12.0779 8.84853 1.93157
1 5.04667 13.562 2.9696
1 0.603454 11.3273 10.7608
1 0.432798 10.4465 8.08819
1 8.02283 0.390049 13.8363
1 1.07222 14.234 3.46318
1 15.3019 15.1513 10.9821
1 14.823 2.81539 11.6852
1 16.0953 3.30642 1.71711
1 16.1477 8.56171 13.4171
1 7.15708 4.14737 12.5921
1 12.1263 10.3711 5.2461
1 4.97905 0.294138 11.6805
1 11.4666 15.2418 9.02888
1 14.0074 5.47853 4.58846
1 3.34757 7.27599 14.8579
1 3.8786 13.2875 0.776846
1 0.168478 4.86566 9.1459
1 4.86249 1.91512 8.14749
1 0.68411 0.0472894 4.06038
1 7.3137 9.32948 4.79195
1 1.00716 8.59032 15.3264
1 1.85403 6.65118 4.15585
1 5.05675 4.49231 0.278091
1 4.32558 13.8869 7.46169
1 9.76689 4.72189 15.031
1 3.12659 2.41661 3.09188
1 10.3735 11.3933 3.77827
1 3.35838 14.1262 4.79405
1 5.10184 8.1229 7.53477
1 6.78861 2.29299 5.82459
1 7.38613 11.2783 0.487383
1 6.12814 1.48777 10.0931
1 9.78151 0.308254 8.03924
1 8.96695 2.95588 5.65362
1 8.7601 14.6394 12.5677
1 4.58854 10.3939 7.06338
1 9.44941 2.03144 1.4874
1 6.15977 7.42601 5.56462
1 4.89861 15.9873 6.7346
1 2.78602 1.34346 15.7274
1 0.245725 3.74064 5.46455
1 3.95015 4.04758 11.1909
1 1.0809 0.0954317 0.451216
1 2.38494 14.9432 1.67442
1 11.9272 6.70414 0.986654
1 14.4158 11.3199 10.4726
1 8.37984 0.543267 10.0264
1 12.7941 2.99621 12.5293
1 8.36452 12.4366 13.2825
1 3.4099 6.47977 7.29965
1 5.69492 9.69481 0.509057
1 13.2532 6.04717 10.1751
1 10.1447 5.85028 10.8058
1 10.0029 4.56729 8.78855
1 15.1527 5.09733 10.9611
1 4.72568 6.39709 2.14902
1 4.73539 7.32948 11.2431
1 13.862 9.03603 7.5247
1 5.70903 0.987903 13.6393
1 6.74084 0.677907 0.66779
1 11.3497 11.5562 15.1849
1 6.76797 5.60876 4.52851
1 4.79312 10.8056 12.7957
1 2.33658 10.3994 2.61225
1 14.823 11.7675 8.22372
1 8.58215 8.36446 7.17041
1 0.401611 13.2982 -0.0507305
1 5.99966 4.08441 7.50992
1 1.69015 13.1909 9.6073
1 12.6281 7.08714 13.8654
1 12.026 7.35573 7.09997
1 8.47552 12.5929 9.26986
1 14.9023 0.946715 10.1635
1 5.3966 6.50143 14.7775
1 12.4875 3.43201 1.49973
1 13.8062 8.93868 13.585
1 3.37759 3.10204 13.1148
1 1.40929 4.9675 0.557856
1 10.8413 6.98889 15.047
1 1.70362 1.35527 13.4473
1 0.950929 15.5282 6.56633
1 15.3412 1.23635 0.627511
1 14.0218 12.0872 2.43691
1 6.15344 11.5135 4.05005
1 14.9846 6.18835 7.68797
