216
Atoms. Timestep: 2000
1 0.550892 14.9442 14.825
1 0.698731 12.0382 13.258
1 5.65718 12.1121 6.28835
1 8.10887 6.6463 2.08889
1 15.1397 15.8526 13.6224
1 7.86091 8.61731 13.109
1 4.17103 4.54929 3.61901
1 3.59109 0.540135 3.03844
1 13.6637 13.7013 10.5426
1 15.1721 2.1869 6.20546
1 14.6911 8.03834 10.2715
1 3.24087 3.11447 0.0765504
1 1.44639 3.00888 8.27823
1 13.1834 16.4334 3.39056
1 10.8853 15.4201 11.7364
1 13.0801 8.77723 4.29633
1 1.93754 6.45813 8.80516
1 12.7878 6.67525 5.11649
1 6.04322 3.87139 10.8275
1 15.1211 12.311 14.5686
1 2.63723 6.13671 11.0323
1 10.6256 6.39889 4.09403
1 4.1679 4.65783 6.01382
1 6.07572 7.29458 9.07335
1 10.9749 5.31826 2.09163
1 12.0501 13.5359 12.4033
1 10.8328 10.3307 11.2595
1 10.4058 9.89255 2.26787
1 2.38264 6.59251 0.859381
1 3.03311 2.28698 9.73082
1 3.73473 9.70276 11.1382
1 4.3995 10.0007 2.69324
1 14.2213 10.1624 0.963854
1 7.47571 14.4812 10.5343
1 9.34356 8.29352 11.186
1 10.6222 11.6825 9.42367
1 7.02381 10.7401 12.4465
1 14.9035 8.20157 7.06685
1 6.97821 10.8276 10.0345
1 9.58415 10.1248 0.102864
1 4.26257 13.25 13.4328
1 9.07316 0.143792 16.0706
1 15.7986 8.43033 0.400582
1 13.2776 3.07568 14.5161
1 12.3711 2.63802 7.74647
1 9.31594 8.24455 3.43089
1 5.71584 3.17088 14.276
1 8.54732 15.3235 6.519
1 14.0704 16.0908 1.20167
1 13.5553 10.6117 15.0945
1 6.88948 2.60423 1.66362
1 3.37543 0.995532 5.53022
1 10.0541 2.55204 7.77196
1 15.939 5.44057 4.87899
1 14.3309 6.39784 0.390984
1 11.0419 13.4596 0.511974
1 -0.00275659 1.14403 7.89823
1 2.61086 3.06207 6.25532
1 6.82877 4.97863 8.93603
1 12.4076 15.1803 16.1019
1 12.8236 13.9153 6.46675
1 14.2091 4.57657 1.90325
1 15.3369 14.0306 1.59793
1 6.62716 -0.00247352 5.62031
1 8.88865 4.53947 0.831137
1 11.9499 13.5793 8.77367
1 13.2328 0.536359 8.61931
1 9.78209 1.38236 3.62984
1 2.07487 10.8203 14.9453
1 4.35588 8.09948 3.82725
1 9.553 6.10514 7.42456
1 4.95156 16.4061 15.777
1 0.0130752 13.8481 7.94504
1 4.58569 6.25981 14.3249
1 11.2754 1.08162 12.7586
1 1.03781 8.1913 1.96052
1 0.57126 6.18186 12.2916
1 0.738258 2.41438 3.15089
1 11.8539 14.6687 4.31875
1 6.3082 15.3691 3.36447
1 1.27048 15.0783 11.3758
1 11.1355 0.593411 15.1169
1 11.9736 12.9046 2.66932
1 7.926 8.7565 9.31198
1 1.27111 9.50103 11.2607
1 7.92011 12.9024 6.77012
1 7.57525 12.1339 3.00594
1 8.46903 11.4307 5.01595
1 1.85971 11.8457 0.581771
1 14.5032 15.354 7.31343
1 13.2108 9.92371 11.1766
1 7.33436 7.842 0.39305
1 8.87595 14.5058 0.631554
1 2.08681 10.0869 6.24336
1 9.01996 4.25242 12.93
1 2.47557 8.01551 5.20731
1 1.3839 11.3231 4.23666
1 7.29964 13.1775 15.59
1 0.604697 8.23194 9.45988
1 6.39171 3.61731 3.64827
1 12.1013 5.308 12.0314
1 13.4892 14.1281 14.1777
1 11.075 9.86695 7.87085
1 9.13136 1.80366 12.2771
1 0.0374891 5.00484 14.2605
1 8.22211 14.3396 2.80246
1 2.01283 13.9641 13.2435
1 13.8301 11.8475 6.11271
1 4.62798 11.1591 9.44782
1 14.1971 5.28144 14.8354
1 13.4252 4.78634 8.17206
1 8.97223 8.24765 15.1505
1 11.4006 2.79578 16.0212
1 15.2223 1.64416 14.5588
1 12.027 1.98555 3.5545
1 9.03811 5.1837 5.38049
1 3.77819 13.3683 9.61778
1 14.6792 0.0906278 5.24178
1 2.00211 13.9637 6.50921
1 15.4044 9.163 4.75601
1 6.10798 7.01903 12.6635
1 4.28264 9.67979 15.1275
1 2.62772 0.538002 11.3129
1 12.9837 3.08048 5.44067
1 15.3856 11.6625 4.35036
1 5.05926 14.0978 15.464
1 9.66206 15.4848 4.3424
1 5.26805 14.2514 11.3276
1 0.0983843 2.8291 13.2412
1 10.4506 11.8607 13.2402
1 12.6233 8.94196 2.04102
1 4.41761 13.8834 3.20709
1 0.326551 11.5678 10.9507
1 0.334737 9.75725 7.66514
1 8.20319 0.188055 13.7997
1 0.695667 14.6742 3.06052
1 15.2603 15.316 11.2507
1 14.9774 2.73536 11.4846
1 16.1282 3.39868 1.2452
1 16.2392 8.38908 12.8751
1 6.84237 4.68595 12.8062
1 12.0011 10.4644 5.71279
1 4.86416 0.133585 11.9165
1 11.2819 15.7025 9.38693
1 13.8614 5.00484 4.11816
1 2.94301 7.70043 15.2915
1 3.66741 13.4253 0.883982
1 0.173868 4.97987 8.65872
1 4.91828 1.62089 8.44236
1 0.429028 0.201094 4.31998
1 8.15528 9.09997 5.42772
1 0.885312 8.72092 14.943
1 0.484181 7.5004 4.14081
1 5.80555 3.87273 0.0330579
1 4.12129 13.9102 7.42175
1 9.96283 4.57688 15.1027
1 2.923 2.74935 2.46384
1 10.6581 11.5067 4.02883
1 2.23758 13.4937 4.24873
1 5.05491 7.98557 7.19539
1 6.94872 2.33884 5.69686
1 7.54339 11.2811 0.724479
1 6.10076 1.4679 10.5251
1 9.33733 0.29348 8.38149
1 9.11027 2.92395 5.54371
1 8.62391 14.6543 12.5224
1 4.3095 10.2586 7.18122
1 9.32296 1.94336 1.29458
1 6.31395 7.81283 5.17509
1 4.73238 16.2169 7.06114
1 2.94019 1.16174 15.2027
1 0.554006 3.47069 5.15389
1 3.71276 3.94833 11.3027
1 1.16477 0.0872196 -0.12494
1 2.26102 15.504 1.60195
1 12.0129 6.99126 0.799018
1 14.5075 11.5924 10.1189
1 8.07695 0.440004 10.4346
1 12.7638 2.99222 12.3457
1 8.2048 12.5856 13.4373
1 3.24361 6.63265 6.88221
1 5.76519 9.72598 0.674852
1 13.5866 5.94162 10.3591
1 9.87796 5.75963 11.2836
1 9.24651 4.53688 9.11121
1 15.5818 4.95235 10.7196
1 4.2353 6.38697 2.25276
1 4.58083 7.57626 11.003
1 12.9085 8.43401 8.47531
1 5.94825 0.830899 13.8119
1 5.64331 0.502712 1.68078
1 11.0873 11.494 15.412
1 7.21778 5.76962 4.11046
1 4.6798 10.8778 13.122
1 2.00809 10.2498 2.22057
1 15.4339 11.7896 7.93848
1 9.1507 8.40933 7.38875
1 16.4828 13.1307 16.2914
1 5.73157 3.57137 7.32523
1 1.43865 13.3073 9.87679
1 12.7133 6.84798 13.8891
1 11.9313 6.46824 7.39294
1 8.4033 12.6009 9.11252
1 15.2136 0.896346 9.93417
1 5.50409 6.14475 0.232396
1 12.1239 3.332 1.70166
1 13.9571 8.876 13.3803
1 3.68614 3.99923 13.7104
1 1.33458 4.61561 -0.0410949
1 10.7886 6.81406 15.2362
1 2.17407 1.9664 13.0527
1 1.54885 16.3581 6.31918
1 15.7177 1.24926 0.422134
1 14.2542 12.0561 2.39312
1 5.42786 11.8631 3.92468
1 15.2047 5.99948 6.97277
