21952
Atoms. Timestep: 0
1 0 0 0
1 2.715 2.715 0
1 1.3575 1.3575 1.3575
2 4.0725 4.0725 1.3575
1 2.715 0 2.715
1 0 2.715 2.715
1 4.0725 1.3575 4.0725
1 1.3575 4.0725 4.0725
1 0 0 5.43
1 2.715 2.715 5.43
1 1.3575 1.3575 6.7875
1 4.0725 4.0725 6.7875
2 2.715 0 8.145
1 0 2.715 8.145
1 4.0725 1.3575 9.5025
1 1.3575 4.0725 9.5025
1 0 0 10.86
1 2.715 2.715 10.86
1 1.3575 1.3575 12.217
1 4.0725 4.0725 12.217
1 2.715 0 13.575
1 0 2.715 13.575
1 4.0725 1.3575 14.932
1 1.3575 4.0725 14.932
1 0 0 16.29
1 2.715 2.715 16.29
1 1.3575 1.3575 17.648
1 4.0725 4.0725 17.648
1 2.715 0 19.005
1 0 2.715 19.005
1 4.0725 1.3575 20.362
1 1.3575 4.0725 20.362
1 0 0 21.72
1 2.715 2.715 21.72
1 1.3575 1.3575 23.078
1 4.0725 4.0725 23.078
1 2.715 0 24.435
1 0 2.715 24.435
1 4.0725 1.3575 25.792
1 1.3575 4.0725 25.792
1 0 0 27.15
1 2.715 2.715 27.15
1 1.3575 1.3575 28.508
1 4.0725 4.0725 28.508
1 2.715 0 29.865
1 0 2.715 29.865
1 4.0725 1.3575 31.222
1 1.3575 4.0725 31.222
1 0 0 32.58
1 2.715 2.715 32.58
1 1.3575 1.3575 33.938
1 4.0725 4.0725 33.938
1 2.715 0 35.295
1 0 2.715 35.295
1 4.0725 1.3575 36.652
1 1.3575 4.0725 36.652
1 0 0 38.01
1 2.715 2.715 38.01
1 1.3575 1.3575 39.367
1 4.0725 4.0725 39.367
1 2.715 0 40.725
1 0 2.715 40.725
1 4.0725 1.3575 42.082
1 1.3575 4.0725 42.082
1 0 0 43.44
1 2.715 2.715 43.44
1 1.3575 1.3575 44.797
1 4.0725 4.0725 44.797
1 2.715 0 46.155
1 0 2.715 46.155
1 4.0725 1.3575 47.512
1 1.3575 4.0725 47.512
1 0 0 48.87
1 2.715 2.715 48.87
2 1.3575 1.3575 50.227
1 4.0725 4.0725 50.227
1 2.715 0 51.585
1 0 2.715 51.585
2 4.0725 1.3575 52.942
2 1.3575 4.0725 52.942
1 0 0 54.3
1 2.715 2.715 54.3
1 1.3575 1.3575 55.657
1 4.0725 4.0725 55.657
1 2.715 0 57.015
1 0 2.715 57.015
1 4.0725 1.3575 58.372
1 1.3575 4.0725 58.372
1 0 0 59.73
1 2.715 2.715 59.73
1 1.3575 1.3575 61.087
1 4.0725 4.0725 61.087
1 2.715 0 62.445
2 0 2.715 62.445
1 4.0725 1.3575 63.802
1 1.3575 4.0725 63.802
1 0 0 65.16
1 2.715 2.715 65.16
1 1.3575 1.3575 66.517
1 4.0725 4.0725 66.517
1 2.715 0 67.875
1 0 2.715 67.875
1 4.0725 1.3575 69.233
1 1.3575 4.0725 69.233
1 0 0 70.59
1 2.715 2.715 70.59
1 1.3575 1.3575 71.948
1 4.0725 4.0725 71.948
1 2.715 0 73.305
1 0 2.715 73.305
1 4.0725 1.3575 74.663
1 1.3575 4.0725 74.663
1 0 5.43 0
1 2.715 8.145 0
1 1.3575 6.7875 1.3575
1 4.0725 9.5025 1.3575
1 2.715 5.43 2.715
1 0 8.145 2.715
1 4.0725 6.7875 4.0725
1 1.3575 9.5025 4.0725
1 0 5.43 5.43
1 2.715 8.145 5.43
1 1.3575 6.7875 6.7875
1 4.0725 9.5025 6.7875
1 2.715 5.43 8.145
1 0 8.145 8.145
1 4.0725 6.7875 9.5025
2 1.3575 9.5025 9.5025
1 0 5.43 10.86
1 2.715 8.145 10.86
1 1.3575 6.7875 12.217
1 4.0725 9.5025 12.217
1 2.715 5.43 13.575
1 0 8.145 13.575
1 4.0725 6.7875 14.932
1 1.3575 9.5025 14.932
1 0 5.43 16.29
1 2.715 8.145 16.29
1 1.3575 6.7875 17.648
1 4.0725 9.5025 17.648
1 2.715 5.43 19.005
1 0 8.145 19.005
1 4.0725 6.7875 20.362
1 1.3575 9.5025 20.362
1 0 5.43 21.72
1 2.715 8.145 21.72
1 1.3575 6.7875 23.078
1 4.0725 9.5025 23.078
1 2.715 5.43 24.435
1 0 8.145 24.435
1 4.0725 6.7875 25.792
1 1.3575 9.5025 25.792
1 0 5.43 27.15
1 2.715 8.145 27.15
1 1.3575 6.7875 28.508
1 4.0725 9.5025 28.508
1 2.715 5.43 29.865
1 0 8.145 29.865
1 4.0725 6.7875 31.222
1 1.3575 9.5025 31.222
1 0 5.43 32.58
1 2.715 8.145 32.58
1 1.3575 6.7875 33.938
1 4.0725 9.5025 33.938
1 2.715 5.43 35.295
1 0 8.145 35.295
1 4.0725 6.7875 36.652
1 1.3575 9.5025 36.652
1 0 5.43 38.01
1 2.715 8.145 38.01
1 1.3575 6.7875 39.367
1 4.0725 9.5025 39.367
1 2.715 5.43 40.725
1 0 8.145 40.725
1 4.0725 6.7875 42.082
1 1.3575 9.5025 42.082
1 0 5.43 43.44
1 2.715 8.145 43.44
1 1.3575 6.7875 44.797
1 4.0725 9.5025 44.797
1 2.715 5.43 46.155
1 0 8.145 46.155
1 4.0725 6.7875 47.512
1 1.3575 9.5025 47.512
1 0 5.43 48.87
1 2.715 8.145 48.87
1 1.3575 6.7875 50.227
2 4.0725 9.5025 50.227
1 2.715 5.43 51.585
1 0 8.145 51.585
1 4.0725 6.7875 52.942
1 1.3575 9.5025 52.942
1 0 5.43 54.3
1 2.715 8.145 54.3
1 1.3575 6.7875 55.657
1 4.0725 9.5025 55.657
1 2.715 5.43 57.015
1 0 8.145 57.015
1 4.0725 6.7875 58.372
1 1.3575 9.5025 58.372
1 0 5.43 59.73
1 2.715 8.145 59.73
1 1.3575 6.7875 61.087
1 4.0725 9.5025 61.087
1 2.715 5.43 62.445
1 0 8.145 62.445
1 4.0725 6.7875 63.802
1 1.3575 9.5025 63.802
2 0 5.43 65.16
1 2.715 8.145 65.16
1 1.3575 6.7875 66.517
1 4.0725 9.5025 66.517
1 2.715 5.43 67.875
1 0 8.145 67.875
1 4.0725 6.7875 69.233
2 1.3575 9.5025 69.233
1 0 5.43 70.59
1 2.715 8.145 70.59
1 1.3575 6.7875 71.948
1 4.0725 9.5025 71.948
1 2.715 5.43 73.305
1 0 8.145 73.305
1 4.0725 6.7875 74.663
1 1.3575 9.5025 74.663
1 0 10.86 0
1 2.715 13.575 0
1 1.3575 12.217 1.3575
1 4.0725 14.932 1.3575
1 2.715 10.86 2.715
1 0 13.575 2.715
1 4.0725 12.217 4.0725
1 1.3575 14.932 4.0725
1 0 10.86 5.43
1 2.715 13.575 5.43
1 1.3575 12.217 6.7875
1 4.0725 14.932 6.7875
1 2.715 10.86 8.145
1 0 13.575 8.145
1 4.0725 12.217 9.5025
1 1.3575 14.932 9.5025
2 0 10.86 10.86
1 2.715 13.575 10.86
1 1.3575 12.217 12.217
1 4.0725 14.932 12.217
1 2.715 10.86 13.575
1 0 13.575 13.575
1 4.0725 12.217 14.932
1 1.3575 14.932 14.932
1 0 10.86 16.29
2 2.715 13.575 16.29
1 1.3575 12.217 17.648
1 4.0725 14.932 17.648
1 2.715 10.86 19.005
1 0 13.575 19.005
1 4.0725 12.217 20.362
1 1.3575 14.932 20.362
1 0 10.86 21.72
1 2.715 13.575 21.72
1 1.3575 12.217 23.078
1 4.0725 14.932 23.078
1 2.715 10.86 24.435
1 0 13.575 24.435
1 4.0725 12.217 25.792
1 1.3575 14.932 25.792
1 0 10.86 27.15
1 2.715 13.575 27.15
1 1.3575 12.217 28.508
1 4.0725 14.932 28.508
1 2.715 10.86 29.865
1 0 13.575 29.865
1 4.0725 12.217 31.222
1 1.3575 14.932 31.222
1 0 10.86 32.58
1 2.715 13.575 32.58
1 1.3575 12.217 33.938
1 4.0725 14.932 33.938
1 2.715 10.86 35.295
1 0 13.575 35.295
1 4.0725 12.217 36.652
1 1.3575 14.932 36.652
1 0 10.86 38.01
1 2.715 13.575 38.01
1 1.3575 12.217 39.367
1 4.0725 14.932 39.367
1 2.715 10.86 40.725
1 0 13.575 40.725
1 4.0725 12.217 42.082
1 1.3575 14.932 42.082
2 0 10.86 43.44
1 2.715 13.575 43.44
2 1.3575 12.217 44.797
1 4.0725 14.932 44.797
1 2.715 10.86 46.155
1 0 13.575 46.155
1 4.0725 12.217 47.512
1 1.3575 14.932 47.512
1 0 10.86 48.87
1 2.715 13.575 48.87
1 1.3575 12.217 50.227
1 4.0725 14.932 50.227
2 2.715 10.86 51.585
1 0 13.575 51.585
1 4.0725 12.217 52.942
1 1.3575 14.932 52.942
1 0 10.86 54.3
1 2.715 13.575 54.3
1 1.3575 12.217 55.657
1 4.0725 14.932 55.657
1 2.715 10.86 57.015
1 0 13.575 57.015
1 4.0725 12.217 58.372
1 1.3575 14.932 58.372
1 0 10.86 59.73
2 2.715 13.575 59.73
1 1.3575 12.217 61.087
1 4.0725 14.932 61.087
1 2.715 10.86 62.445
1 0 13.575 62.445
1 4.0725 12.217 63.802
1 1.3575 14.932 63.802
2 0 10.86 65.16
2 2.715 13.575 65.16
1 1.3575 12.217 66.517
1 4.0725 14.932 66.517
1 2.715 10.86 67.875
1 0 13.575 67.875
1 4.0725 12.217 69.233
1 1.3575 14.932 69.233
1 0 10.86 70.59
1 2.715 13.575 70.59
1 1.3575 12.217 71.948
1 4.0725 14.932 71.948
1 2.715 10.86 73.305
1 0 13.575 73.305
1 4.0725 12.217 74.663
1 1.3575 14.932 74.663
1 0 16.29 0
1 2.715 19.005 0
2 1.3575 17.648 1.3575
1 4.0725 20.362 1.3575
1 2.715 16.29 2.715
1 0 19.005 2.715
1 4.0725 17.648 4.0725
1 1.3575 20.362 4.0725
1 0 16.29 5.43
1 2.715 19.005 5.43
1 1.3575 17.648 6.7875
1 4.0725 20.362 6.7875
1 2.715 16.29 8.145
1 0 19.005 8.145
1 4.0725 17.648 9.5025
2 1.3575 20.362 9.5025
1 0 16.29 10.86
1 2.715 19.005 10.86
1 1.3575 17.648 12.217
2 4.0725 20.362 12.217
1 2.715 16.29 13.575
1 0 19.005 13.575
1 4.0725 17.648 14.932
1 1.3575 20.362 14.932
2 0 16.29 16.29
1 2.715 19.005 16.29
1 1.3575 17.648 17.648
1 4.0725 20.362 17.648
1 2.715 16.29 19.005
1 0 19.005 19.005
1 4.0725 17.648 20.362
1 1.3575 20.362 20.362
1 0 16.29 21.72
1 2.715 19.005 21.72
1 1.3575 17.648 23.078
1 4.0725 20.362 23.078
2 2.715 16.29 24.435
1 0 19.005 24.435
1 4.0725 17.648 25.792
1 1.3575 20.362 25.792
2 0 16.29 27.15
1 2.715 19.005 27.15
1 1.3575 17.648 28.508
1 4.0725 20.362 28.508
1 2.715 16.29 29.865
1 0 19.005 29.865
1 4.0725 17.648 31.222
1 1.3575 20.362 31.222
1 0 16.29 32.58
1 2.715 19.005 32.58
1 1.3575 17.648 33.938
1 4.0725 20.362 33.938
1 2.715 16.29 35.295
1 0 19.005 35.295
1 4.0725 17.648 36.652
1 1.3575 20.362 36.652
1 0 16.29 38.01
1 2.715 19.005 38.01
1 1.3575 17.648 39.367
1 4.0725 20.362 39.367
1 2.715 16.29 40.725
1 0 19.005 40.725
1 4.0725 17.648 42.082
2 1.3575 20.362 42.082
1 0 16.29 43.44
2 2.715 19.005 43.44
1 1.3575 17.648 44.797
1 4.0725 20.362 44.797
1 2.715 16.29 46.155
1 0 19.005 46.155
1 4.0725 17.648 47.512
1 1.3575 20.362 47.512
1 0 16.29 48.87
1 2.715 19.005 48.87
1 1.3575 17.648 50.227
2 4.0725 20.362 50.227
1 2.715 16.29 51.585
1 0 19.005 51.585
2 4.0725 17.648 52.942
1 1.3575 20.362 52.942
1 0 16.29 54.3
1 2.715 19.005 54.3
1 1.3575 17.648 55.657
1 4.0725 20.362 55.657
1 2.715 16.29 57.015
1 0 19.005 57.015
1 4.0725 17.648 58.372
1 1.3575 20.362 58.372
1 0 16.29 59.73
1 2.715 19.005 59.73
1 1.3575 17.648 61.087
1 4.0725 20.362 61.087
1 2.715 16.29 62.445
2 0 19.005 62.445
1 4.0725 17.648 63.802
1 1.3575 20.362 63.802
1 0 16.29 65.16
1 2.715 19.005 65.16
1 1.3575 17.648 66.517
1 4.0725 20.362 66.517
1 2.715 16.29 67.875
1 0 19.005 67.875
1 4.0725 17.648 69.233
1 1.3575 20.362 69.233
1 0 16.29 70.59
1 2.715 19.005 70.59
2 1.3575 17.648 71.948
1 4.0725 20.362 71.948
2 2.715 16.29 73.305
1 0 19.005 73.305
1 4.0725 17.648 74.663
1 1.3575 20.362 74.663
1 0 21.72 0
1 2.715 24.435 0
1 1.3575 23.078 1.3575
1 4.0725 25.792 1.3575
1 2.715 21.72 2.715
1 0 24.435 2.715
1 4.0725 23.078 4.0725
1 1.3575 25.792 4.0725
1 0 21.72 5.43
1 2.715 24.435 5.43
1 1.3575 23.078 6.7875
1 4.0725 25.792 6.7875
1 2.715 21.72 8.145
1 0 24.435 8.145
1 4.0725 23.078 9.5025
1 1.3575 25.792 9.5025
1 0 21.72 10.86
1 2.715 24.435 10.86
1 1.3575 23.078 12.217
1 4.0725 25.792 12.217
1 2.715 21.72 13.575
1 0 24.435 13.575
1 4.0725 23.078 14.932
1 1.3575 25.792 14.932
1 0 21.72 16.29
1 2.715 24.435 16.29
1 1.3575 23.078 17.648
1 4.0725 25.792 17.648
1 2.715 21.72 19.005
1 0 24.435 19.005
1 4.0725 23.078 20.362
1 1.3575 25.792 20.362
1 0 21.72 21.72
1 2.715 24.435 21.72
1 1.3575 23.078 23.078
2 4.0725 25.792 23.078
1 2.715 21.72 24.435
1 0 24.435 24.435
1 4.0725 23.078 25.792
1 1.3575 25.792 25.792
1 0 21.72 27.15
1 2.715 24.435 27.15
1 1.3575 23.078 28.508
1 4.0725 25.792 28.508
1 2.715 21.72 29.865
1 0 24.435 29.865
1 4.0725 23.078 31.222
1 1.3575 25.792 31.222
1 0 21.72 32.58
1 2.715 24.435 32.58
1 1.3575 23.078 33.938
2 4.0725 25.792 33.938
1 2.715 21.72 35.295
1 0 24.435 35.295
1 4.0725 23.078 36.652
1 1.3575 25.792 36.652
1 0 21.72 38.01
1 2.715 24.435 38.01
1 1.3575 23.078 39.367
1 4.0725 25.792 39.367
2 2.715 21.72 40.725
1 0 24.435 40.725
1 4.0725 23.078 42.082
1 1.3575 25.792 42.082
1 0 21.72 43.44
1 2.715 24.435 43.44
1 1.3575 23.078 44.797
1 4.0725 25.792 44.797
1 2.715 21.72 46.155
1 0 24.435 46.155
1 4.0725 23.078 47.512
1 1.3575 25.792 47.512
1 0 21.72 48.87
1 2.715 24.435 48.87
1 1.3575 23.078 50.227
1 4.0725 25.792 50.227
1 2.715 21.72 51.585
1 0 24.435 51.585
1 4.0725 23.078 52.942
1 1.3575 25.792 52.942
1 0 21.72 54.3
1 2.715 24.435 54.3
1 1.3575 23.078 55.657
1 4.0725 25.792 55.657
1 2.715 21.72 57.015
1 0 24.435 57.015
1 4.0725 23.078 58.372
1 1.3575 25.792 58.372
1 0 21.72 59.73
1 2.715 24.435 59.73
1 1.3575 23.078 61.087
1 4.0725 25.792 61.087
1 2.715 21.72 62.445
1 0 24.435 62.445
1 4.0725 23.078 63.802
1 1.3575 25.792 63.802
1 0 21.72 65.16
1 2.715 24.435 65.16
1 1.3575 23.078 66.517
1 4.0725 25.792 66.517
1 2.715 21.72 67.875
1 0 24.435 67.875
1 4.0725 23.078 69.233
1 1.3575 25.792 69.233
1 0 21.72 70.59
1 2.715 24.435 70.59
1 1.3575 23.078 71.948
1 4.0725 25.792 71.948
1 2.715 21.72 73.305
1 0 24.435 73.305
1 4.0725 23.078 74.663
1 1.3575 25.792 74.663
1 0 27.15 0
1 2.715 29.865 0
1 1.3575 28.508 1.3575
1 4.0725 31.222 1.3575
1 2.715 27.15 2.715
1 0 29.865 2.715
1 4.0725 28.508 4.0725
1 1.3575 31.222 4.0725
1 0 27.15 5.43
1 2.715 29.865 5.43
1 1.3575 28.508 6.7875
1 4.0725 31.222 6.7875
1 2.715 27.15 8.145
2 0 29.865 8.145
1 4.0725 28.508 9.5025
1 1.3575 31.222 9.5025
1 0 27.15 10.86
1 2.715 29.865 10.86
1 1.3575 28.508 12.217
1 4.0725 31.222 12.217
1 2.715 27.15 13.575
1 0 29.865 13.575
1 4.0725 28.508 14.932
1 1.3575 31.222 14.932
1 0 27.15 16.29
1 2.715 29.865 16.29
1 1.3575 28.508 17.648
2 4.0725 31.222 17.648
2 2.715 27.15 19.005
1 0 29.865 19.005
1 4.0725 28.508 20.362
1 1.3575 31.222 20.362
1 0 27.15 21.72
1 2.715 29.865 21.72
1 1.3575 28.508 23.078
1 4.0725 31.222 23.078
1 2.715 27.15 24.435
1 0 29.865 24.435
1 4.0725 28.508 25.792
2 1.3575 31.222 25.792
1 0 27.15 27.15
1 2.715 29.865 27.15
1 1.3575 28.508 28.508
1 4.0725 31.222 28.508
1 2.715 27.15 29.865
1 0 29.865 29.865
1 4.0725 28.508 31.222
1 1.3575 31.222 31.222
1 0 27.15 32.58
1 2.715 29.865 32.58
1 1.3575 28.508 33.938
1 4.0725 31.222 33.938
1 2.715 27.15 35.295
1 0 29.865 35.295
1 4.0725 28.508 36.652
2 1.3575 31.222 36.652
1 0 27.15 38.01
1 2.715 29.865 38.01
1 1.3575 28.508 39.367
2 4.0725 31.222 39.367
1 2.715 27.15 40.725
1 0 29.865 40.725
1 4.0725 28.508 42.082
1 1.3575 31.222 42.082
1 0 27.15 43.44
2 2.715 29.865 43.44
1 1.3575 28.508 44.797
1 4.0725 31.222 44.797
1 2.715 27.15 46.155
2 0 29.865 46.155
1 4.0725 28.508 47.512
1 1.3575 31.222 47.512
1 0 27.15 48.87
1 2.715 29.865 48.87
1 1.3575 28.508 50.227
1 4.0725 31.222 50.227
1 2.715 27.15 51.585
1 0 29.865 51.585
1 4.0725 28.508 52.942
1 1.3575 31.222 52.942
2 0 27.15 54.3
1 2.715 29.865 54.3
1 1.3575 28.508 55.657
1 4.0725 31.222 55.657
1 2.715 27.15 57.015
2 0 29.865 57.015
1 4.0725 28.508 58.372
1 1.3575 31.222 58.372
1 0 27.15 59.73
1 2.715 29.865 59.73
1 1.3575 28.508 61.087
1 4.0725 31.222 61.087
1 2.715 27.15 62.445
1 0 29.865 62.445
1 4.0725 28.508 63.802
1 1.3575 31.222 63.802
1 0 27.15 65.16
1 2.715 29.865 65.16
1 1.3575 28.508 66.517
1 4.0725 31.222 66.517
1 2.715 27.15 67.875
1 0 29.865 67.875
1 4.0725 28.508 69.233
1 1.3575 31.222 69.233
1 0 27.15 70.59
1 2.715 29.865 70.59
1 1.3575 28.508 71.948
1 4.0725 31.222 71.948
1 2.715 27.15 73.305
1 0 29.865 73.305
1 4.0725 28.508 74.663
1 1.3575 31.222 74.663
1 0 32.58 0
1 2.715 35.295 0
1 1.3575 33.938 1.3575
1 4.0725 36.652 1.3575
1 2.715 32.58 2.715
1 0 35.295 2.715
1 4.0725 33.938 4.0725
1 1.3575 36.652 4.0725
1 0 32.58 5.43
1 2.715 35.295 5.43
2 1.3575 33.938 6.7875
1 4.0725 36.652 6.7875
1 2.715 32.58 8.145
1 0 35.295 8.145
1 4.0725 33.938 9.5025
1 1.3575 36.652 9.5025
1 0 32.58 10.86
1 2.715 35.295 10.86
1 1.3575 33.938 12.217
1 4.0725 36.652 12.217
1 2.715 32.58 13.575
1 0 35.295 13.575
1 4.0725 33.938 14.932
1 1.3575 36.652 14.932
1 0 32.58 16.29
1 2.715 35.295 16.29
1 1.3575 33.938 17.648
1 4.0725 36.652 17.648
2 2.715 32.58 19.005
1 0 35.295 19.005
1 4.0725 33.938 20.362
2 1.3575 36.652 20.362
1 0 32.58 21.72
1 2.715 35.295 21.72
1 1.3575 33.938 23.078
1 4.0725 36.652 23.078
1 2.715 32.58 24.435
1 0 35.295 24.435
1 4.0725 33.938 25.792
1 1.3575 36.652 25.792
1 0 32.58 27.15
1 2.715 35.295 27.15
1 1.3575 33.938 28.508
1 4.0725 36.652 28.508
1 2.715 32.58 29.865
1 0 35.295 29.865
1 4.0725 33.938 31.222
1 1.3575 36.652 31.222
1 0 32.58 32.58
1 2.715 35.295 32.58
1 1.3575 33.938 33.938
1 4.0725 36.652 33.938
1 2.715 32.58 35.295
1 0 35.295 35.295
2 4.0725 33.938 36.652
1 1.3575 36.652 36.652
1 0 32.58 38.01
1 2.715 35.295 38.01
1 1.3575 33.938 39.367
2 4.0725 36.652 39.367
1 2.715 32.58 40.725
1 0 35.295 40.725
1 4.0725 33.938 42.082
1 1.3575 36.652 42.082
1 0 32.58 43.44
1 2.715 35.295 43.44
1 1.3575 33.938 44.797
1 4.0725 36.652 44.797
1 2.715 32.58 46.155
1 0 35.295 46.155
1 4.0725 33.938 47.512
1 1.3575 36.652 47.512
1 0 32.58 48.87
1 2.715 35.295 48.87
1 1.3575 33.938 50.227
1 4.0725 36.652 50.227
1 2.715 32.58 51.585
1 0 35.295 51.585
1 4.0725 33.938 52.942
1 1.3575 36.652 52.942
1 0 32.58 54.3
1 2.715 35.295 54.3
1 1.3575 33.938 55.657
1 4.0725 36.652 55.657
1 2.715 32.58 57.015
1 0 35.295 57.015
1 4.0725 33.938 58.372
1 1.3575 36.652 58.372
1 0 32.58 59.73
1 2.715 35.295 59.73
1 1.3575 33.938 61.087
1 4.0725 36.652 61.087
1 2.715 32.58 62.445
1 0 35.295 62.445
1 4.0725 33.938 63.802
1 1.3575 36.652 63.802
1 0 32.58 65.16
1 2.715 35.295 65.16
1 1.3575 33.938 66.517
1 4.0725 36.652 66.517
1 2.715 32.58 67.875
1 0 35.295 67.875
2 4.0725 33.938 69.233
1 1.3575 36.652 69.233
1 0 32.58 70.59
1 2.715 35.295 70.59
1 1.3575 33.938 71.948
1 4.0725 36.652 71.948
1 2.715 32.58 73.305
1 0 35.295 73.305
1 4.0725 33.938 74.663
1 1.3575 36.652 74.663
1 0 38.01 0
1 2.715 40.725 0
1 1.3575 39.367 1.3575
1 4.0725 42.082 1.3575
1 2.715 38.01 2.715
1 0 40.725 2.715
1 4.0725 39.367 4.0725
1 1.3575 42.082 4.0725
1 0 38.01 5.43
1 2.715 40.725 5.43
1 1.3575 39.367 6.7875
1 4.0725 42.082 6.7875
1 2.715 38.01 8.145
1 0 40.725 8.145
1 4.0725 39.367 9.5025
1 1.3575 42.082 9.5025
1 0 38.01 10.86
1 2.715 40.725 10.86
1 1.3575 39.367 12.217
1 4.0725 42.082 12.217
1 2.715 38.01 13.575
1 0 40.725 13.575
1 4.0725 39.367 14.932
1 1.3575 42.082 14.932
1 0 38.01 16.29
1 2.715 40.725 16.29
1 1.3575 39.367 17.648
1 4.0725 42.082 17.648
1 2.715 38.01 19.005
1 0 40.725 19.005
1 4.0725 39.367 20.362
1 1.3575 42.082 20.362
1 0 38.01 21.72
1 2.715 40.725 21.72
1 1.3575 39.367 23.078
1 4.0725 42.082 23.078
1 2.715 38.01 24.435
1 0 40.725 24.435
1 4.0725 39.367 25.792
1 1.3575 42.082 25.792
1 0 38.01 27.15
1 2.715 40.725 27.15
1 1.3575 39.367 28.508
1 4.0725 42.082 28.508
1 2.715 38.01 29.865
2 0 40.725 29.865
1 4.0725 39.367 31.222
1 1.3575 42.082 31.222
2 0 38.01 32.58
1 2.715 40.725 32.58
1 1.3575 39.367 33.938
1 4.0725 42.082 33.938
1 2.715 38.01 35.295
1 0 40.725 35.295
1 4.0725 39.367 36.652
1 1.3575 42.082 36.652
1 0 38.01 38.01
1 2.715 40.725 38.01
1 1.3575 39.367 39.367
1 4.0725 42.082 39.367
1 2.715 38.01 40.725
1 0 40.725 40.725
1 4.0725 39.367 42.082
1 1.3575 42.082 42.082
1 0 38.01 43.44
1 2.715 40.725 43.44
1 1.3575 39.367 44.797
1 4.0725 42.082 44.797
1 2.715 38.01 46.155
1 0 40.725 46.155
1 4.0725 39.367 47.512
1 1.3575 42.082 47.512
1 0 38.01 48.87
1 2.715 40.725 48.87
1 1.3575 39.367 50.227
1 4.0725 42.082 50.227
1 2.715 38.01 51.585
1 0 40.725 51.585
1 4.0725 39.367 52.942
1 1.3575 42.082 52.942
1 0 38.01 54.3
1 2.715 40.725 54.3
1 1.3575 39.367 55.657
1 4.0725 42.082 55.657
1 2.715 38.01 57.015
1 0 40.725 57.015
1 4.0725 39.367 58.372
1 1.3575 42.082 58.372
1 0 38.01 59.73
1 2.715 40.725 59.73
1 1.3575 39.367 61.087
1 4.0725 42.082 61.087
1 2.715 38.01 62.445
1 0 40.725 62.445
1 4.0725 39.367 63.802
1 1.3575 42.082 63.802
1 0 38.01 65.16
1 2.715 40.725 65.16
1 1.3575 39.367 66.517
1 4.0725 42.082 66.517
1 2.715 38.01 67.875
1 0 40.725 67.875
1 4.0725 39.367 69.233
1 1.3575 42.082 69.233
2 0 38.01 70.59
1 2.715 40.725 70.59
1 1.3575 39.367 71.948
1 4.0725 42.082 71.948
1 2.715 38.01 73.305
1 0 40.725 73.305
1 4.0725 39.367 74.663
1 1.3575 42.082 74.663
1 0 43.44 0
1 2.715 46.155 0
1 1.3575 44.797 1.3575
1 4.0725 47.512 1.3575
1 2.715 43.44 2.715
1 0 46.155 2.715
1 4.0725 44.797 4.0725
1 1.3575 47.512 4.0725
1 0 43.44 5.43
1 2.715 46.155 5.43
1 1.3575 44.797 6.7875
1 4.0725 47.512 6.7875
1 2.715 43.44 8.145
2 0 46.155 8.145
1 4.0725 44.797 9.5025
1 1.3575 47.512 9.5025
2 0 43.44 10.86
1 2.715 46.155 10.86
1 1.3575 44.797 12.217
1 4.0725 47.512 12.217
1 2.715 43.44 13.575
1 0 46.155 13.575
1 4.0725 44.797 14.932
1 1.3575 47.512 14.932
1 0 43.44 16.29
1 2.715 46.155 16.29
1 1.3575 44.797 17.648
1 4.0725 47.512 17.648
1 2.715 43.44 19.005
1 0 46.155 19.005
1 4.0725 44.797 20.362
1 1.3575 47.512 20.362
1 0 43.44 21.72
1 2.715 46.155 21.72
1 1.3575 44.797 23.078
1 4.0725 47.512 23.078
1 2.715 43.44 24.435
1 0 46.155 24.435
1 4.0725 44.797 25.792
1 1.3575 47.512 25.792
1 0 43.44 27.15
1 2.715 46.155 27.15
2 1.3575 44.797 28.508
1 4.0725 47.512 28.508
1 2.715 43.44 29.865
1 0 46.155 29.865
1 4.0725 44.797 31.222
1 1.3575 47.512 31.222
1 0 43.44 32.58
1 2.715 46.155 32.58
1 1.3575 44.797 33.938
1 4.0725 47.512 33.938
1 2.715 43.44 35.295
1 0 46.155 35.295
1 4.0725 44.797 36.652
1 1.3575 47.512 36.652
1 0 43.44 38.01
1 2.715 46.155 38.01
1 1.3575 44.797 39.367
1 4.0725 47.512 39.367
1 2.715 43.44 40.725
1 0 46.155 40.725
1 4.0725 44.797 42.082
1 1.3575 47.512 42.082
1 0 43.44 43.44
1 2.715 46.155 43.44
1 1.3575 44.797 44.797
1 4.0725 47.512 44.797
1 2.715 43.44 46.155
1 0 46.155 46.155
1 4.0725 44.797 47.512
1 1.3575 47.512 47.512
1 0 43.44 48.87
1 2.715 46.155 48.87
1 1.3575 44.797 50.227
1 4.0725 47.512 50.227
1 2.715 43.44 51.585
1 0 46.155 51.585
1 4.0725 44.797 52.942
1 1.3575 47.512 52.942
2 0 43.44 54.3
1 2.715 46.155 54.3
1 1.3575 44.797 55.657
1 4.0725 47.512 55.657
1 2.715 43.44 57.015
2 0 46.155 57.015
1 4.0725 44.797 58.372
1 1.3575 47.512 58.372
1 0 43.44 59.73
1 2.715 46.155 59.73
1 1.3575 44.797 61.087
1 4.0725 47.512 61.087
1 2.715 43.44 62.445
1 0 46.155 62.445
1 4.0725 44.797 63.802
1 1.3575 47.512 63.802
1 0 43.44 65.16
1 2.715 46.155 65.16
1 1.3575 44.797 66.517
1 4.0725 47.512 66.517
1 2.715 43.44 67.875
1 0 46.155 67.875
1 4.0725 44.797 69.233
1 1.3575 47.512 69.233
1 0 43.44 70.59
1 2.715 46.155 70.59
1 1.3575 44.797 71.948
1 4.0725 47.512 71.948
2 2.715 43.44 73.305
1 0 46.155 73.305
1 4.0725 44.797 74.663
1 1.3575 47.512 74.663
1 0 48.87 0
1 2.715 51.585 0
1 1.3575 50.227 1.3575
2 4.0725 52.942 1.3575
1 2.715 48.87 2.715
1 0 51.585 2.715
1 4.0725 50.227 4.0725
1 1.3575 52.942 4.0725
1 0 48.87 5.43
1 2.715 51.585 5.43
1 1.3575 50.227 6.7875
1 4.0725 52.942 6.7875
1 2.715 48.87 8.145
1 0 51.585 8.145
1 4.0725 50.227 9.5025
1 1.3575 52.942 9.5025
1 0 48.87 10.86
1 2.715 51.585 10.86
1 1.3575 50.227 12.217
1 4.0725 52.942 12.217
1 2.715 48.87 13.575
1 0 51.585 13.575
1 4.0725 50.227 14.932
1 1.3575 52.942 14.932
1 0 48.87 16.29
1 2.715 51.585 16.29
1 1.3575 50.227 17.648
1 4.0725 52.942 17.648
1 2.715 48.87 19.005
1 0 51.585 19.005
1 4.0725 50.227 20.362
1 1.3575 52.942 20.362
1 0 48.87 21.72
1 2.715 51.585 21.72
1 1.3575 50.227 23.078
1 4.0725 52.942 23.078
1 2.715 48.87 24.435
1 0 51.585 24.435
1 4.0725 50.227 25.792
1 1.3575 52.942 25.792
1 0 48.87 27.15
1 2.715 51.585 27.15
1 1.3575 50.227 28.508
1 4.0725 52.942 28.508
1 2.715 48.87 29.865
1 0 51.585 29.865
1 4.0725 50.227 31.222
1 1.3575 52.942 31.222
1 0 48.87 32.58
1 2.715 51.585 32.58
1 1.3575 50.227 33.938
1 4.0725 52.942 33.938
1 2.715 48.87 35.295
1 0 51.585 35.295
1 4.0725 50.227 36.652
1 1.3575 52.942 36.652
1 0 48.87 38.01
1 2.715 51.585 38.01
1 1.3575 50.227 39.367
1 4.0725 52.942 39.367
1 2.715 48.87 40.725
1 0 51.585 40.725
2 4.0725 50.227 42.082
1 1.3575 52.942 42.082
1 0 48.87 43.44
1 2.715 51.585 43.44
1 1.3575 50.227 44.797
1 4.0725 52.942 44.797
1 2.715 48.87 46.155
1 0 51.585 46.155
1 4.0725 50.227 47.512
1 1.3575 52.942 47.512
1 0 48.87 48.87
1 2.715 51.585 48.87
1 1.3575 50.227 50.227
1 4.0725 52.942 50.227
1 2.715 48.87 51.585
1 0 51.585 51.585
1 4.0725 50.227 52.942
1 1.3575 52.942 52.942
1 0 48.87 54.3
1 2.715 51.585 54.3
1 1.3575 50.227 55.657
1 4.0725 52.942 55.657
1 2.715 48.87 57.015
1 0 51.585 57.015
1 4.0725 50.227 58.372
1 1.3575 52.942 58.372
1 0 48.87 59.73
1 2.715 51.585 59.73
1 1.3575 50.227 61.087
1 4.0725 52.942 61.087
1 2.715 48.87 62.445
1 0 51.585 62.445
1 4.0725 50.227 63.802
1 1.3575 52.942 63.802
1 0 48.87 65.16
1 2.715 51.585 65.16
1 1.3575 50.227 66.517
1 4.0725 52.942 66.517
1 2.715 48.87 67.875
1 0 51.585 67.875
1 4.0725 50.227 69.233
1 1.3575 52.942 69.233
1 0 48.87 70.59
2 2.715 51.585 70.59
1 1.3575 50.227 71.948
1 4.0725 52.942 71.948
1 2.715 48.87 73.305
1 0 51.585 73.305
1 4.0725 50.227 74.663
1 1.3575 52.942 74.663
1 0 54.3 0
1 2.715 57.015 0
1 1.3575 55.657 1.3575
1 4.0725 58.372 1.3575
1 2.715 54.3 2.715
1 0 57.015 2.715
1 4.0725 55.657 4.0725
1 1.3575 58.372 4.0725
1 0 54.3 5.43
1 2.715 57.015 5.43
1 1.3575 55.657 6.7875
2 4.0725 58.372 6.7875
1 2.715 54.3 8.145
1 0 57.015 8.145
1 4.0725 55.657 9.5025
1 1.3575 58.372 9.5025
1 0 54.3 10.86
1 2.715 57.015 10.86
1 1.3575 55.657 12.217
1 4.0725 58.372 12.217
1 2.715 54.3 13.575
1 0 57.015 13.575
1 4.0725 55.657 14.932
1 1.3575 58.372 14.932
1 0 54.3 16.29
1 2.715 57.015 16.29
1 1.3575 55.657 17.648
1 4.0725 58.372 17.648
1 2.715 54.3 19.005
1 0 57.015 19.005
1 4.0725 55.657 20.362
1 1.3575 58.372 20.362
1 0 54.3 21.72
1 2.715 57.015 21.72
1 1.3575 55.657 23.078
1 4.0725 58.372 23.078
1 2.715 54.3 24.435
1 0 57.015 24.435
1 4.0725 55.657 25.792
1 1.3575 58.372 25.792
1 0 54.3 27.15
1 2.715 57.015 27.15
1 1.3575 55.657 28.508
1 4.0725 58.372 28.508
1 2.715 54.3 29.865
1 0 57.015 29.865
1 4.0725 55.657 31.222
1 1.3575 58.372 31.222
1 0 54.3 32.58
1 2.715 57.015 32.58
1 1.3575 55.657 33.938
2 4.0725 58.372 33.938
1 2.715 54.3 35.295
1 0 57.015 35.295
1 4.0725 55.657 36.652
1 1.3575 58.372 36.652
1 0 54.3 38.01
1 2.715 57.015 38.01
1 1.3575 55.657 39.367
1 4.0725 58.372 39.367
1 2.715 54.3 40.725
1 0 57.015 40.725
1 4.0725 55.657 42.082
1 1.3575 58.372 42.082
1 0 54.3 43.44
1 2.715 57.015 43.44
1 1.3575 55.657 44.797
1 4.0725 58.372 44.797
2 2.715 54.3 46.155
1 0 57.015 46.155
1 4.0725 55.657 47.512
1 1.3575 58.372 47.512
1 0 54.3 48.87
1 2.715 57.015 48.87
1 1.3575 55.657 50.227
1 4.0725 58.372 50.227
1 2.715 54.3 51.585
1 0 57.015 51.585
2 4.0725 55.657 52.942
1 1.3575 58.372 52.942
1 0 54.3 54.3
1 2.715 57.015 54.3
1 1.3575 55.657 55.657
1 4.0725 58.372 55.657
1 2.715 54.3 57.015
1 0 57.015 57.015
1 4.0725 55.657 58.372
1 1.3575 58.372 58.372
1 0 54.3 59.73
1 2.715 57.015 59.73
1 1.3575 55.657 61.087
1 4.0725 58.372 61.087
2 2.715 54.3 62.445
1 0 57.015 62.445
1 4.0725 55.657 63.802
2 1.3575 58.372 63.802
1 0 54.3 65.16
1 2.715 57.015 65.16
1 1.3575 55.657 66.517
1 4.0725 58.372 66.517
1 2.715 54.3 67.875
1 0 57.015 67.875
1 4.0725 55.657 69.233
1 1.3575 58.372 69.233
1 0 54.3 70.59
1 2.715 57.015 70.59
1 1.3575 55.657 71.948
1 4.0725 58.372 71.948
1 2.715 54.3 73.305
1 0 57.015 73.305
1 4.0725 55.657 74.663
1 1.3575 58.372 74.663
1 0 59.73 0
1 2.715 62.445 0
1 1.3575 61.087 1.3575
1 4.0725 63.802 1.3575
1 2.715 59.73 2.715
1 0 62.445 2.715
1 4.0725 61.087 4.0725
1 1.3575 63.802 4.0725
1 0 59.73 5.43
1 2.715 62.445 5.43
1 1.3575 61.087 6.7875
1 4.0725 63.802 6.7875
1 2.715 59.73 8.145
1 0 62.445 8.145
1 4.0725 61.087 9.5025
1 1.3575 63.802 9.5025
1 0 59.73 10.86
1 2.715 62.445 10.86
1 1.3575 61.087 12.217
1 4.0725 63.802 12.217
1 2.715 59.73 13.575
1 0 62.445 13.575
1 4.0725 61.087 14.932
1 1.3575 63.802 14.932
1 0 59.73 16.29
1 2.715 62.445 16.29
1 1.3575 61.087 17.648
1 4.0725 63.802 17.648
1 2.715 59.73 19.005
1 0 62.445 19.005
1 4.0725 61.087 20.362
1 1.3575 63.802 20.362
1 0 59.73 21.72
2 2.715 62.445 21.72
1 1.3575 61.087 23.078
1 4.0725 63.802 23.078
1 2.715 59.73 24.435
1 0 62.445 24.435
1 4.0725 61.087 25.792
1 1.3575 63.802 25.792
1 0 59.73 27.15
1 2.715 62.445 27.15
1 1.3575 61.087 28.508
1 4.0725 63.802 28.508
1 2.715 59.73 29.865
1 0 62.445 29.865
1 4.0725 61.087 31.222
1 1.3575 63.802 31.222
2 0 59.73 32.58
1 2.715 62.445 32.58
1 1.3575 61.087 33.938
2 4.0725 63.802 33.938
1 2.715 59.73 35.295
1 0 62.445 35.295
1 4.0725 61.087 36.652
1 1.3575 63.802 36.652
1 0 59.73 38.01
1 2.715 62.445 38.01
1 1.3575 61.087 39.367
1 4.0725 63.802 39.367
1 2.715 59.73 40.725
1 0 62.445 40.725
1 4.0725 61.087 42.082
1 1.3575 63.802 42.082
1 0 59.73 43.44
1 2.715 62.445 43.44
1 1.3575 61.087 44.797
1 4.0725 63.802 44.797
2 2.715 59.73 46.155
1 0 62.445 46.155
1 4.0725 61.087 47.512
1 1.3575 63.802 47.512
1 0 59.73 48.87
1 2.715 62.445 48.87
1 1.3575 61.087 50.227
1 4.0725 63.802 50.227
1 2.715 59.73 51.585
1 0 62.445 51.585
1 4.0725 61.087 52.942
1 1.3575 63.802 52.942
2 0 59.73 54.3
1 2.715 62.445 54.3
1 1.3575 61.087 55.657
1 4.0725 63.802 55.657
1 2.715 59.73 57.015
1 0 62.445 57.015
1 4.0725 61.087 58.372
1 1.3575 63.802 58.372
1 0 59.73 59.73
1 2.715 62.445 59.73
1 1.3575 61.087 61.087
1 4.0725 63.802 61.087
1 2.715 59.73 62.445
1 0 62.445 62.445
1 4.0725 61.087 63.802
1 1.3575 63.802 63.802
1 0 59.73 65.16
1 2.715 62.445 65.16
2 1.3575 61.087 66.517
1 4.0725 63.802 66.517
1 2.715 59.73 67.875
1 0 62.445 67.875
1 4.0725 61.087 69.233
1 1.3575 63.802 69.233
1 0 59.73 70.59
1 2.715 62.445 70.59
1 1.3575 61.087 71.948
1 4.0725 63.802 71.948
1 2.715 59.73 73.305
1 0 62.445 73.305
1 4.0725 61.087 74.663
1 1.3575 63.802 74.663
1 0 65.16 0
1 2.715 67.875 0
2 1.3575 66.517 1.3575
1 4.0725 69.233 1.3575
1 2.715 65.16 2.715
1 0 67.875 2.715
1 4.0725 66.517 4.0725
1 1.3575 69.233 4.0725
1 0 65.16 5.43
1 2.715 67.875 5.43
1 1.3575 66.517 6.7875
1 4.0725 69.233 6.7875
1 2.715 65.16 8.145
1 0 67.875 8.145
1 4.0725 66.517 9.5025
1 1.3575 69.233 9.5025
1 0 65.16 10.86
1 2.715 67.875 10.86
1 1.3575 66.517 12.217
1 4.0725 69.233 12.217
1 2.715 65.16 13.575
1 0 67.875 13.575
2 4.0725 66.517 14.932
1 1.3575 69.233 14.932
1 0 65.16 16.29
1 2.715 67.875 16.29
1 1.3575 66.517 17.648
1 4.0725 69.233 17.648
1 2.715 65.16 19.005
1 0 67.875 19.005
1 4.0725 66.517 20.362
1 1.3575 69.233 20.362
1 0 65.16 21.72
1 2.715 67.875 21.72
1 1.3575 66.517 23.078
1 4.0725 69.233 23.078
1 2.715 65.16 24.435
1 0 67.875 24.435
1 4.0725 66.517 25.792
1 1.3575 69.233 25.792
1 0 65.16 27.15
1 2.715 67.875 27.15
1 1.3575 66.517 28.508
1 4.0725 69.233 28.508
1 2.715 65.16 29.865
1 0 67.875 29.865
1 4.0725 66.517 31.222
1 1.3575 69.233 31.222
1 0 65.16 32.58
1 2.715 67.875 32.58
1 1.3575 66.517 33.938
1 4.0725 69.233 33.938
1 2.715 65.16 35.295
1 0 67.875 35.295
1 4.0725 66.517 36.652
1 1.3575 69.233 36.652
1 0 65.16 38.01
1 2.715 67.875 38.01
1 1.3575 66.517 39.367
1 4.0725 69.233 39.367
2 2.715 65.16 40.725
1 0 67.875 40.725
1 4.0725 66.517 42.082
1 1.3575 69.233 42.082
1 0 65.16 43.44
1 2.715 67.875 43.44
1 1.3575 66.517 44.797
1 4.0725 69.233 44.797
1 2.715 65.16 46.155
1 0 67.875 46.155
1 4.0725 66.517 47.512
1 1.3575 69.233 47.512
1 0 65.16 48.87
1 2.715 67.875 48.87
1 1.3575 66.517 50.227
2 4.0725 69.233 50.227
1 2.715 65.16 51.585
1 0 67.875 51.585
1 4.0725 66.517 52.942
2 1.3575 69.233 52.942
1 0 65.16 54.3
1 2.715 67.875 54.3
1 1.3575 66.517 55.657
2 4.0725 69.233 55.657
1 2.715 65.16 57.015
1 0 67.875 57.015
1 4.0725 66.517 58.372
1 1.3575 69.233 58.372
1 0 65.16 59.73
1 2.715 67.875 59.73
1 1.3575 66.517 61.087
1 4.0725 69.233 61.087
1 2.715 65.16 62.445
2 0 67.875 62.445
1 4.0725 66.517 63.802
1 1.3575 69.233 63.802
1 0 65.16 65.16
1 2.715 67.875 65.16
1 1.3575 66.517 66.517
1 4.0725 69.233 66.517
1 2.715 65.16 67.875
1 0 67.875 67.875
1 4.0725 66.517 69.233