216
Atoms. Timestep: 12
1 0.698148 14.8916 14.8654
1 0.708574 11.9915 13.4514
1 5.42632 12.2573 6.29483
1 8.02681 6.48794 2.06043
1 15.1002 15.7812 13.5942
1 7.81225 8.51014 13.1231
1 4.08672 4.43954 3.69174
1 3.56406 0.739647 3.04969
1 13.6619 13.5815 10.6395
1 15.1588 2.18488 6.01217
1 14.147 8.09702 9.84544
1 3.19183 3.16198 0.359732
1 1.47706 3.01345 8.28547
1 13.2004 16.2593 3.52275
1 10.9604 15.4187 11.7588
1 12.9919 8.60208 4.25031
1 1.84922 6.68487 8.89632
1 12.4852 6.56746 4.93473
1 6.07427 3.87127 10.7628
1 14.9589 12.3643 14.6723
1 2.80153 6.15839 10.9242
1 10.628 6.13368 3.93129
1 3.89203 4.65363 6.04381
1 6.1168 7.25045 9.13807
1 11.0861 5.12225 2.02974
1 12.2111 13.6767 12.4922
1 10.9625 10.2304 11.2917
1 10.4364 9.61461 2.25191
1 2.26421 6.66487 0.951876
1 2.98241 2.35509 9.78775
1 3.67741 9.74125 11.2666
1 4.44222 10.0337 2.69358
1 14.0979 10.0281 0.985023
1 7.56361 14.5029 10.647
1 9.37395 8.16724 11.2927
1 10.6159 11.6323 9.21684
1 7.03845 10.7698 12.5366
1 14.9743 8.30108 6.83596
1 6.97067 10.8002 10.0587
1 9.5568 10.1448 0.162831
1 4.27436 13.2956 13.3489
1 9.11835 0.504813 16.0211
1 15.6573 8.3177 0.599681
1 13.4626 3.23952 14.4652
1 12.4705 2.81707 7.54321
1 9.36547 7.94622 3.31283
1 5.70042 3.23293 14.1552
1 8.40578 15.3142 6.43578
1 14.1124 15.8095 1.39036
1 13.52 10.5715 15.1067
1 6.53587 2.6091 1.79763
1 3.22033 0.956272 5.49319
1 10.0533 2.71033 7.73123
1 15.9634 5.46682 5.01702
1 14.3093 6.27753 0.526267
1 11.1386 13.4768 0.570932
1 0.0783878 1.35189 7.8262
1 2.41155 3.08417 6.2261
1 6.81974 4.95172 8.88488
1 12.5275 15.2099 16.013
1 12.8848 13.8112 6.56182
1 14.3327 4.53476 2.03156
1 15.3675 13.8666 1.81771
1 6.50418 0.143415 5.53562
1 9.16266 4.57393 0.97962
1 12.0328 13.6073 8.81043
1 13.2844 0.665152 8.59451
1 9.83798 1.5898 3.74689
1 1.97983 10.7467 15.029
1 4.40102 8.07953 3.74749
1 9.78622 6.29499 7.2681
1 4.93478 0.0608251 15.7676
1 0.146963 13.7379 7.93959
1 4.25072 6.20247 14.4055
1 11.3087 1.1695 12.767
1 0.987383 8.17114 2.09169
1 0.774992 6.13944 12.3201
1 0.856915 2.40408 3.22701
1 11.8435 14.5665 4.44656
1 6.06297 15.3812 3.36917
1 1.32792 15.1229 11.3577
1 11.2646 0.807248 15.208
1 11.9352 12.8427 2.829
1 7.93432 8.69807 9.394
1 1.26183 9.59526 11.2456
1 7.79523 12.8556 6.76667
1 7.53235 12.1588 3.06057
1 8.62867 11.385 4.9105
1 1.89308 11.9078 0.633865
1 14.5514 15.3072 7.14128
1 13.3322 9.7167 11.2151
1 6.99446 7.5937 0.405591
1 8.93887 14.5494 0.61834
1 2.15193 10.0604 6.28117
1 9.03081 4.17433 12.8772
1 2.46415 8.01142 5.22833
1 1.3687 11.3322 4.42782
1 7.43402 13.1504 15.6653
1 0.373628 8.4842 9.4445
1 6.17976 3.76079 3.74752
1 12.2006 5.32584 11.7488
1 13.6135 14.2435 14.2148
1 11.1571 9.88296 7.56928
1 9.1463 1.78575 12.2757
1 0.312063 4.86944 14.2091
1 8.13002 14.4399 2.8323
1 1.93744 13.9184 13.3024
1 13.898 11.7893 6.18608
1 4.59154 10.9996 9.51092
1 14.3595 5.36138 14.7174
1 13.3287 4.98086 8.08484
1 8.88718 8.19774 15.2365
1 11.7713 2.94034 15.8078
1 14.9949 1.57865 14.5849
1 12.1177 1.9536 3.5678
1 9.14728 5.23438 5.26728
1 3.87743 13.3085 9.58045
1 14.8134 0.168288 5.10473
1 1.92864 14.1535 6.52911
1 15.0858 8.89188 4.68817
1 5.96544 6.88771 12.9309
1 4.07389 9.79438 15.0933
1 2.69036 0.816051 11.5027
1 13.2086 2.99869 5.37717
1 15.2999 11.2019 4.45205
1 5.10471 14.0251 15.5201
1 9.63384 15.4903 4.4039
1 5.21716 14.3368 11.3351
1 0.149208 2.71898 13.326
1 10.6747 11.8832 13.1395
1 12.4295 8.79024 2.00087
1 4.32633 13.6472 3.26176
1 0.478688 11.6679 11.2483
1 0.286085 9.7537 7.68254
1 8.11227 0.392733 13.8583
1 0.806039 14.6726 3.08759
1 15.311 15.4342 11.2216
1 15.0586 2.82199 11.3892
1 16.0976 3.24952 1.46338
1 0.0824306 8.34806 12.9262
1 6.85457 4.64444 12.7497
1 12.093 10.4075 5.5567
1 4.91347 0.298594 11.8123
1 11.3255 15.702 9.36882
1 13.9585 4.97003 4.29363
1 2.87854 7.69967 15.1953
1 3.59109 13.5521 1.05519
1 0.45939 5.02634 8.67834
1 4.85243 1.70962 8.47816
1 0.406427 0.232004 4.15474
1 8.18736 9.02047 5.20401
1 0.869614 8.69367 14.9964
1 0.486768 7.44606 4.13866
1 5.47242 3.78358 0.086169
1 4.12195 14.0612 7.35821
1 10.0575 4.56708 15.1228
1 2.95845 2.74773 2.60229
1 10.6918 11.2679 3.93185
1 2.17109 13.4506 4.39774
1 5.15317 8.01719 7.17654
1 6.8756 2.52082 5.56043
1 7.5169 11.2684 0.782931
1 6.14272 1.56726 10.2562
1 9.42228 0.425 8.33658
1 9.12208 2.9564 5.56303
1 8.71916 14.7033 12.5343
1 4.35395 10.3185 7.2937
1 8.74456 2.24283 1.54004
1 6.24266 7.7444 5.11472
1 4.74888 16.2865 6.91894
1 2.92083 1.2339 15.4286
1 0.553011 3.48452 5.02692
1 3.81194 4.16593 11.0647
1 1.30961 0.114298 0.0211962
1 2.33838 15.4645 1.73006
1 12.1023 6.84786 0.849991
1 14.6341 11.5573 10.3577
1 8.13887 0.59308 10.2456
1 12.8113 3.02737 12.2925
1 8.41478 12.5945 13.474
1 3.2227 6.72222 6.93711
1 5.69327 9.70657 0.642494
1 13.6929 5.86988 10.1753
1 9.9946 5.66009 11.1309
1 9.22162 4.7616 8.92203
1 15.6613 4.9691 10.7086
1 4.11396 6.3022 2.21212
1 4.64315 7.55405 11.0657
1 12.9604 8.4538 7.95107
1 5.91167 0.947288 13.8986
1 5.47571 0.621017 1.8207
1 11.2456 11.4561 15.3565
1 7.17612 5.78614 4.11596
1 4.72153 10.8781 13.1361
1 2.08618 10.3424 2.38286
1 15.2915 11.6211 8.03735
1 9.18324 8.53589 7.35404
1 0.0116355 13.1427 0.0104342
1 5.68358 3.60598 7.2526
1 1.4922 13.4643 9.9371
1 12.7769 6.7459 13.6052
1 12.0412 6.50512 7.15676
1 8.29204 12.5353 9.1518
1 15.0936 1.02998 9.83585
1 5.40564 5.98684 0.214235
1 12.4167 3.35523 1.73032
1 13.9634 8.85773 13.2899
1 3.67395 4.01457 13.4016
1 1.37488 4.60258 0.0994532
1 10.9056 6.78382 15.1252
1 2.31298 2.13281 13.4245
1 1.38254 0.00683663 6.25204
1 15.6087 1.20872 0.450071
1 14.2184 11.9564 2.49841
1 5.37791 11.8731 3.90697
1 15.3184 5.88102 7.12501
