216
Atoms. Timestep: 15
1 0.682323 14.9042 14.8703
1 0.710612 11.9789 13.4442
1 5.42814 12.2594 6.29646
1 8.0301 6.47836 2.05572
1 15.1119 15.7802 13.5875
1 7.8112 8.51215 13.1192
1 4.07683 4.44512 3.69089
1 3.5544 0.720281 3.06016
1 13.6599 13.5935 10.638
1 15.1657 2.20888 6.02221
1 14.1589 8.09551 9.85998
1 3.19613 3.16179 0.356178
1 1.47547 3.02125 8.28379
1 13.1993 16.2528 3.51931
1 10.9531 15.4128 11.7491
1 12.9719 8.60986 4.24093
1 1.85696 6.69733 8.89462
1 12.4922 6.56552 4.94251
1 6.07564 3.8687 10.7608
1 14.9417 12.356 14.662
1 2.79567 6.16543 10.9263
1 10.6335 6.13563 3.93182
1 3.90667 4.66459 6.04531
1 6.11607 7.24619 9.14446
1 11.0834 5.12733 2.0228
1 12.2102 13.6676 12.4933
1 10.958 10.2307 11.2894
1 10.4274 9.62735 2.25238
1 2.26282 6.66063 0.944558
1 2.98814 2.35642 9.79143
1 3.67695 9.73869 11.27
1 4.44132 10.0448 2.6836
1 14.0988 10.0331 0.989344
1 7.55479 14.4989 10.6306
1 9.37655 8.16633 11.2915
1 10.6148 11.6317 9.2192
1 7.04052 10.7686 12.5332
1 14.9795 8.29054 6.8249
1 6.9669 10.7985 10.0634
1 9.55327 10.1467 0.160259
1 4.2763 13.2933 13.3507
1 9.11387 0.505205 16.028
1 15.648 8.31404 0.586867
1 13.4601 3.24924 14.4615
1 12.4593 2.81024 7.55998
1 9.36501 7.96217 3.32
1 5.70421 3.22827 14.1564
1 8.40638 15.3114 6.44322
1 14.1136 15.8111 1.38722
1 13.5151 10.5679 15.0997
1 6.53428 2.61479 1.79758
1 3.23514 0.966354 5.48783
1 10.0545 2.70947 7.73288
1 15.9674 5.47856 5.01471
1 14.3125 6.28502 0.526855
1 11.1363 13.4728 0.571392
1 0.0803702 1.34575 7.83862
1 2.41027 3.07668 6.22583
1 6.82339 4.95696 8.88191
1 12.5251 15.2117 16.017
1 12.8787 13.8152 6.55854
1 14.3343 4.53725 2.0344
1 15.3562 13.8729 1.82773
1 6.51357 0.143817 5.52607
1 9.15187 4.56996 0.984641
1 12.0345 13.596 8.80941
1 13.2619 0.66388 8.5802
1 9.83125 1.58501 3.74256
1 1.96941 10.7633 15.0203
1 4.39352 8.07039 3.75416
1 9.78179 6.29279 7.26654
1 4.93434 0.0586552 15.7768
1 0.137241 13.7358 7.94434
1 4.26445 6.18919 14.401
1 11.3132 1.17261 12.7795
1 0.999441 8.18254 2.09185
1 0.774508 6.14433 12.3125
1 0.846844 2.393 3.21731
1 11.844 14.5661 4.44752
1 6.07443 15.3653 3.38697
1 1.32743 15.1341 11.3717
1 11.2643 0.797999 15.2004
1 11.9422 12.8492 2.82054
1 7.93762 8.69998 9.39783
1 1.27033 9.58459 11.2483
1 7.79466 12.8602 6.76584
1 7.52979 12.1605 3.05278
1 8.62055 11.3842 4.92057
1 1.89621 11.9135 0.643286
1 14.5547 15.3055 7.14819
1 13.3275 9.72458 11.2183
1 6.99729 7.61416 0.396078
1 8.94233 14.5498 0.61456
1 2.15401 10.0618 6.28138
1 9.04761 4.1724 12.8764
1 2.46582 8.01623 5.21848
1 1.36876 11.3255 4.42576
1 7.43161 13.1536 15.6618
1 0.375045 8.46644 9.47047
1 6.18687 3.75483 3.74704
1 12.2001 5.32164 11.7601
1 13.61 14.2372 14.2194
1 11.1426 9.88632 7.57972
1 9.13792 1.7937 12.2707
1 0.312942 4.86453 14.215
1 8.13321 14.4397 2.83371
1 1.95229 13.9177 13.2865
1 13.8942 11.7877 6.18683
1 4.59654 11.0061 9.51414
1 14.3591 5.36205 14.7149
1 13.3341 4.97232 8.08665
1 8.88718 8.19638 15.2379
1 11.7579 2.94765 15.8153
1 14.994 1.57126 14.5915
1 12.1153 1.9569 3.56902
1 9.13745 5.22924 5.27857
1 3.87685 13.3061 9.58388
1 14.7654 0.152173 5.10531
1 1.93716 14.1498 6.53399
1 15.1008 8.90168 4.6849
1 5.9703 6.89046 12.9278
1 4.09306 9.79096 15.0983
1 2.68634 0.814072 11.5063
1 13.1936 3.01052 5.36311
1 15.3028 11.202 4.44548
1 5.10777 14.0192 15.5183
1 9.63298 15.4954 4.40113
1 5.21827 14.3317 11.3343
1 0.154276 2.72716 13.3184
1 10.6763 11.8843 13.1313
1 12.4432 8.78685 2.00199
1 4.32765 13.6598 3.27016
1 0.476429 11.6802 11.2358
1 0.289416 9.76951 7.66563
1 8.11892 0.387413 13.8576
1 0.798546 14.6632 3.08673
1 15.3061 15.4295 11.2221
1 15.0553 2.82147 11.3904
1 16.1031 3.25381 1.45117
1 0.0741453 8.34654 12.9167
1 6.84934 4.6539 12.7513
1 12.0986 10.4079 5.54586
1 4.91821 0.301718 11.8145
1 11.326 15.7117 9.37515
1 13.9457 4.96363 4.28654
1 2.88352 7.69121 15.2091
1 3.58983 13.5474 1.04328
1 0.451827 5.01698 8.68127
1 4.84497 1.7172 8.46489
1 0.438152 0.231458 4.12576
1 8.1976 9.02256 5.20231
1 0.848071 8.69691 15.0044
1 0.488647 7.44328 4.14493
1 5.47213 3.77015 0.0872226
1 4.12363 14.0554 7.35705
1 10.0618 4.56497 15.113
1 2.9614 2.76712 2.59581
1 10.6946 11.2612 3.92806
1 2.17671 13.4454 4.39604
1 5.1507 8.02173 7.17812
1 6.87275 2.51489 5.56217
1 7.519 11.266 0.785342
1 6.14236 1.56959 10.2718
1 9.42353 0.423927 8.3243
1 9.12719 2.95288 5.56416
1 8.73117 14.7113 12.5451
1 4.35403 10.3152 7.28938
1 8.75906 2.23794 1.54053
1 6.24005 7.74095 5.11558
1 4.74456 16.2831 6.92302
1 2.93341 1.24123 15.4245
1 0.556167 3.4799 5.04449
1 3.81213 4.15528 11.0655
1 1.29817 0.1174 0.0274577
1 2.34672 15.4725 1.72565
1 12.1008 6.84316 0.848511
1 14.634 11.5491 10.3565
1 8.15001 0.587344 10.254
1 12.8126 3.03122 12.2852
1 8.41067 12.5882 13.4789
1 3.2235 6.71687 6.94322
1 5.69355 9.7043 0.644383
1 13.6918 5.87422 10.1709
1 9.98258 5.66283 11.1299
1 9.22125 4.75874 8.92744
1 15.6711 4.96812 10.7132
1 4.12053 6.30135 2.21694
1 4.64906 7.5582 11.0635
1 12.9523 8.44974 7.9497
1 5.90696 0.948366 13.8906
1 5.4787 0.624234 1.79743
1 11.25 11.4592 15.3647
1 7.17024 5.78283 4.12298
1 4.72148 10.8841 13.1293
1 2.08572 10.3371 2.38643
1 15.2939 11.6242 8.04324
1 9.18292 8.54132 7.35283
1 0.0227231 13.1483 0.0202766
1 5.67905 3.60504 7.25485
1 1.49756 13.4473 9.92778
1 12.7777 6.74761 13.6015
1 12.0385 6.51349 7.15382
1 8.29547 12.5394 9.15294
1 15.1046 1.03199 9.84895
1 5.39054 5.9943 0.211733
1 12.4202 3.34472 1.73066
1 13.9667 8.85818 13.2965
1 3.66728 4.01696 13.4002
1 1.36827 4.60376 0.102161
1 10.9033 6.78443 15.1234
1 2.31667 2.12529 13.418
1 1.39221 -0.00323376 6.26527
1 15.6063 1.20546 0.456097
1 14.2119 11.955 2.49901
1 5.387 11.8568 3.91284
1 15.3158 5.88926 7.13194
