216
Atoms. Timestep: 13
1 0.692644 14.896 14.8672
1 0.709302 11.9871 13.4489
1 5.42694 12.258 6.29539
1 8.02797 6.4846 2.05879
1 15.1042 15.7809 13.5918
1 7.81188 8.51084 13.1217
1 4.08326 4.44147 3.69144
1 3.56068 0.732894 3.05334
1 13.6612 13.5857 10.639
1 15.1612 2.19329 6.01568
1 14.1511 8.09648 9.85051
1 3.19332 3.1619 0.358508
1 1.4765 3.01617 8.28488
1 13.2001 16.257 3.52158
1 10.9579 15.4167 11.7554
1 12.9849 8.60479 4.24703
1 1.85192 6.68922 8.89573
1 12.4876 6.56678 4.93744
1 6.07474 3.87037 10.7621
1 14.9529 12.3614 14.6687
1 2.79948 6.16084 10.9249
1 10.6299 6.13435 3.93146
1 3.89712 4.65745 6.04433
1 6.11654 7.24896 9.14029
1 11.0852 5.12403 2.02733
1 12.2108 13.6735 12.4926
1 10.9609 10.2305 11.2909
1 10.4332 9.61904 2.25209
1 2.26373 6.6634 0.949316
1 2.98441 2.35556 9.78903
1 3.67724 9.74036 11.2678
1 4.44191 10.0376 2.69011
1 14.0982 10.0298 0.986537
1 7.56053 14.5015 10.6413
1 9.37485 8.16692 11.2923
1 10.6156 11.6321 9.21765
1 7.03917 10.7694 12.5354
1 14.9761 8.29741 6.83208
1 6.96935 10.7996 10.0604
1 9.55557 10.1455 0.161944
1 4.27502 13.2948 13.3495
1 9.11679 0.504953 16.0235
1 15.6541 8.31643 0.595209
1 13.4617 3.24291 14.4639
1 12.4666 2.8147 7.54906
1 9.36532 7.95179 3.31531
1 5.70174 3.23131 14.1556
1 8.40598 15.3132 6.43837
1 14.1128 15.8101 1.38927
1 13.5183 10.5702 15.1043
1 6.53529 2.61108 1.79762
1 3.22548 0.959778 5.49132
1 10.0537 2.71003 7.7318
1 15.9648 5.47093 5.01621
1 14.3104 6.28014 0.526476
1 11.1378 13.4754 0.571093
1 0.0790951 1.34979 7.83054
1 2.41106 3.08154 6.22601
1 6.82101 4.95355 8.88385
1 12.5267 15.2106 16.0144
1 12.8826 13.8126 6.56068
1 14.3332 4.53562 2.03256
1 15.3636 13.8688 1.82119
1 6.50745 0.143562 5.53228
1 9.15891 4.57256 0.98138
1 12.0334 13.6033 8.81007
1 13.2766 0.664705 8.58952
1 9.83564 1.58814 3.74539
1 1.97617 10.7525 15.026
1 4.39842 8.07633 3.74982
1 9.78469 6.29422 7.26755
1 4.93463 0.0600818 15.7708
1 0.143582 13.7372 7.94124
1 4.25549 6.19785 14.404
1 11.3103 1.17059 12.7713
1 0.991586 8.1751 2.09176
1 0.774828 6.14114 12.3175
1 0.853402 2.4002 3.22363
1 11.8437 14.5664 4.4469
1 6.06697 15.3756 3.37538
1 1.32775 15.1268 11.3626
1 11.2645 0.804024 15.2054
1 11.9377 12.845 2.82606
1 7.93547 8.69873 9.39533
1 1.26478 9.59153 11.2465
1 7.79503 12.8572 6.76637
1 7.53145 12.1594 3.05786
1 8.62585 11.3847 4.914
1 1.89416 11.9098 0.637133
1 14.5526 15.3066 7.14367
1 13.3306 9.71944 11.2162
1 6.99545 7.60081 0.402282
1 8.94007 14.5495 0.617027
1 2.15264 10.0609 6.28125
1 9.03666 4.17365 12.8769
1 2.46472 8.0131 5.22489
1 1.36872 11.3299 4.4271
1 7.43318 13.1515 15.6641
1 0.374145 8.478 9.45358
1 6.18225 3.75872 3.74735
1 12.2004 5.32437 11.7527
1 13.6123 14.2413 14.2164
1 11.1521 9.88412 7.57292
1 9.14337 1.78852 12.274
1 0.312365 4.86773 14.2111
1 8.13112 14.4398 2.83279
1 1.94262 13.9181 13.2968
1 13.8967 11.7887 6.18635
1 4.59328 11.0019 9.51204
1 14.3593 5.3616 14.7166
1 13.3306 4.97789 8.08548
1 8.88718 8.19726 15.237
1 11.7666 2.9429 15.8105
1 14.9946 1.57607 14.5872
1 12.1169 1.95477 3.56823
1 9.14386 5.23258 5.27122
1 3.87722 13.3077 9.58165
1 14.7965 0.162629 5.10492
1 1.9316 14.1522 6.53079
1 15.0911 8.89529 4.68705
1 5.96712 6.88866 12.9299
1 4.08059 9.7932 15.095
1 2.68895 0.815362 11.5039
1 13.2034 3.00281 5.37226
1 15.3009 11.202 4.44977
1 5.10577 14.023 15.5195
1 9.63354 15.4921 4.40293
1 5.21755 14.335 11.3348
1 0.150982 2.72183 13.3234
1 10.6752 11.8836 13.1366
1 12.4343 8.78905 2.00127
1 4.32677 13.6516 3.26468
1 0.477892 11.6722 11.244
1 0.28725 9.75924 7.67661
1 8.11458 0.390876 13.858
1 0.803408 14.6694 3.08732
1 15.3093 15.4326 11.2218
1 15.0574 2.8218 11.3896
1 16.0995 3.25101 1.45915
1 0.0795568 8.34753 12.9229
1 6.85273 4.64773 12.7503
1 12.0949 10.4077 5.55291
1 4.91513 0.29969 11.813
1 11.3257 15.7054 9.37103
1 13.954 4.9678 4.29115
1 2.88029 7.69669 15.2001
1 3.59064 13.5504 1.05105
1 0.456749 5.02306 8.67935
1 4.84983 1.71225 8.47353
1 0.417589 0.231775 4.14452
1 8.19093 9.0212 5.20342
1 0.862094 8.69478 14.9991
1 0.4874 7.44508 4.14086
1 5.47232 3.77889 0.0865368
1 4.12253 14.0592 7.3578
1 10.059 4.56634 15.1194
1 2.95948 2.75451 2.60004
1 10.6928 11.2655 3.93054
1 2.17304 13.4488 4.39715
1 5.15231 8.01877 7.17708
1 6.8746 2.51876 5.56103
1 7.51764 11.2676 0.783776
1 6.14259 1.56807 10.2617
1 9.42271 0.424627 8.33231
1 9.12386 2.95519 5.56342
1 8.72335 14.7061 12.5381
1 4.35398 10.3174 7.29219
1 8.7496 2.24114 1.54021
1 6.24175 7.7432 5.11501
1 4.74736 16.2853 6.92037
1 2.92522 1.23646 15.4272
1 0.554119 3.48291 5.03306
1 3.81201 4.16221 11.065
1 1.30562 0.115345 0.0233796
1 2.34128 15.4674 1.72854
1 12.1018 6.84623 0.849484
1 14.6341 11.5544 10.3573
1 8.14273 0.591089 10.2485
1 12.8118 3.02871 12.2899
1 8.41335 12.5923 13.4757
1 3.22297 6.72034 6.93924
1 5.69336 9.70577 0.643146
1 13.6925 5.8714 10.1737
1 9.99042 5.66104 11.1305
1 9.22149 4.76061 8.92391
1 15.6647 4.96876 10.7102
1 4.11626 6.3019 2.2138
1 4.6452 7.55549 11.0649
1 12.9576 8.45238 7.95058
1 5.91003 0.947676 13.8958
1 5.47675 0.622161 1.81258
1 11.2471 11.4572 15.3593
1 7.17407 5.78498 4.11841
1 4.72151 10.8802 13.1337
1 2.08601 10.3405 2.3841
1 15.2923 11.6222 8.0394
1 9.18313 8.53778 7.35362
1 0.0155106 13.1446 0.013882
1 5.682 3.60565 7.25338
1 1.49406 13.4583 9.93384
1 12.7772 6.74648 13.6039
1 12.0402 6.50805 7.15572
1 8.29323 12.5367 9.1522
1 15.0975 1.03069 9.84042
1 5.40036 5.98944 0.213357
1 12.4179 3.35158 1.73044
1 13.9646 8.85789 13.2922
1 3.67163 4.01541 13.4011
1 1.37258 4.60299 0.100396
1 10.9048 6.78403 15.1246
1 2.31426 2.1302 13.4222
1 1.38596 0.00329984 6.25667
1 15.6078 1.20759 0.452155
1 14.2162 11.9559 2.49862
1 5.38108 11.8674 3.90901
1 15.3175 5.88389 7.12743
