216
Atoms. Timestep: 14
1 0.687366 14.9002 14.8688
1 0.709983 11.9829 13.4464
1 5.42755 12.2588 6.29593
1 8.02907 6.4814 2.05722
1 15.1082 15.7806 13.5896
1 7.81153 8.51151 13.1204
1 4.07996 4.44333 3.69115
1 3.55746 0.726434 3.05683
1 13.6605 13.5897 10.6385
1 15.1635 2.2013 6.01903
1 14.1551 8.09598 9.85536
1 3.19476 3.16184 0.357324
1 1.47597 3.01878 8.28432
1 13.1997 16.2549 3.52044
1 10.9554 15.4147 11.7522
1 12.9782 8.60738 4.2439
1 1.8545 6.69338 8.89516
1 12.49 6.56613 4.94003
1 6.0752 3.86951 10.7614
1 14.9472 12.3586 14.6652
1 2.79752 6.16319 10.9256
1 10.6318 6.135 3.93164
1 3.90201 4.6611 6.04482
1 6.1163 7.24754 9.14242
1 11.0843 5.12572 2.02502
1 12.2105 13.6705 12.493
1 10.9595 10.2306 11.2901
1 10.4302 9.62329 2.25224
1 2.26327 6.66199 0.946875
1 2.98633 2.356 9.79026
1 3.67709 9.73951 11.2689
1 4.44161 10.0413 2.68678
1 14.0985 10.0315 0.987978
1 7.55759 14.5002 10.6358
1 9.37572 8.16662 11.2919
1 10.6152 11.6319 9.21844
1 7.03986 10.769 12.5343
1 14.9778 8.29389 6.82839
1 6.9681 10.799 10.0619
1 9.5544 10.1461 0.161087
1 4.27567 13.2941 13.3501
1 9.1153 0.505084 16.0258
1 15.651 8.3152 0.590935
1 13.4609 3.24615 14.4627
1 12.4629 2.81243 7.55465
1 9.36517 7.95711 3.3177
1 5.703 3.22976 14.156
1 8.40619 15.3123 6.44085
1 14.1132 15.8106 1.38822
1 13.5167 10.5691 15.1019
1 6.53476 2.61298 1.7976
1 3.23042 0.963141 5.48953
1 10.0541 2.70975 7.73235
1 15.9661 5.47484 5.01544
1 14.3115 6.28264 0.526672
1 11.137 13.4741 0.571246
1 0.0797571 1.34774 7.83468
1 2.41063 3.07905 6.22592
1 6.82223 4.95529 8.88286
1 12.5259 15.2112 16.0157
1 12.8806 13.8139 6.55958
1 14.3338 4.53645 2.03351
1 15.3598 13.8709 1.82453
1 6.51058 0.143696 5.5291
1 9.15531 4.57124 0.983056
1 12.034 13.5996 8.80973
1 13.269 0.66428 8.58475
1 9.8334 1.58654 3.74394
1 1.9727 10.7581 15.0231
1 4.39592 8.07328 3.75205
1 9.78321 6.29349 7.26703
1 4.93448 0.059359 15.7739
1 0.140339 13.7365 7.94282
1 4.26007 6.19342 14.4025
1 11.3118 1.17163 12.7755
1 0.995608 8.17891 2.09181
1 0.774666 6.14277 12.3149
1 0.850043 2.39651 3.22039
1 11.8439 14.5662 4.44722
1 6.07079 15.3703 3.38132
1 1.32759 15.1306 11.3672
1 11.2644 0.800939 15.2028
1 11.94 12.8472 2.82324
1 7.93657 8.69937 9.39661
1 1.26762 9.58797 11.2474
1 7.79484 12.8587 6.76609
1 7.53059 12.16 3.05526
1 8.62314 11.3844 4.91736
1 1.89521 11.9117 0.640275
1 14.5537 15.306 7.14598
1 13.329 9.72207 11.2173
1 6.99639 7.60764 0.39911
1 8.94123 14.5497 0.615766
1 2.15333 10.0614 6.28133
1 9.04227 4.17301 12.8766
1 2.46528 8.0147 5.22161
1 1.36874 11.3276 4.42642
1 7.43237 13.1526 15.6629
1 0.374619 8.47207 9.46225
1 6.18462 3.75673 3.74718
1 12.2002 5.32297 11.7565
1 13.6111 14.2392 14.2179
1 11.1472 9.88524 7.5764
1 9.14058 1.79117 12.2723
1 0.312658 4.86609 14.2131
1 8.13218 14.4398 2.83327
1 1.94757 13.9179 13.2915
1 13.8954 11.7882 6.1866
1 4.59494 11.004 9.51312
1 14.3592 5.36183 14.7157
1 13.3324 4.97504 8.08608
1 8.88718 8.19681 15.2375
1 11.7621 2.94533 15.8129
1 14.9943 1.5736 14.5894
1 12.1161 1.95587 3.56864
1 9.14058 5.23086 5.27498
1 3.87703 13.3069 9.58279
1 14.7805 0.157253 5.10511
1 1.93444 14.151 6.53242
1 15.0961 8.89855 4.68596
1 5.96874 6.88957 12.9288
1 4.08698 9.79206 15.0967
1 2.68761 0.814702 11.5051
1 13.1984 3.00675 5.36757
1 15.3018 11.202 4.44757
1 5.10679 14.0211 15.5189
1 9.63326 15.4938 4.40201
1 5.21792 14.3333 11.3346
1 0.152672 2.72456 13.3208
1 10.6758 11.884 13.1339
1 12.4388 8.78793 2.00164
1 4.32722 13.6558 3.26748
1 0.477138 11.6763 11.2398
1 0.288361 9.76451 7.67097
1 8.1168 0.389102 13.8578
1 0.800908 14.6662 3.08703
1 15.3077 15.431 11.222
1 15.0563 2.82163 11.39
1 16.1013 3.25244 1.45507
1 0.0767943 8.34703 12.9198
1 6.85098 4.65089 12.7508
1 12.0968 10.4078 5.54929
1 4.91671 0.300732 11.8138
1 11.3258 15.7086 9.37314
1 13.9497 4.96566 4.28879
1 2.88195 7.69386 15.2047
1 3.59022 13.5489 1.04707
1 0.454226 5.01993 8.68033
1 4.84734 1.71478 8.4691
1 0.428175 0.23159 4.13485
1 8.19434 9.0219 5.20285
1 0.854908 8.69586 15.0018
1 0.488025 7.44415 4.14295
1 5.47223 3.77441 0.0868882
1 4.12308 14.0573 7.35741
1 10.0605 4.56564 15.1162
1 2.96046 2.76098 2.59787
1 10.6937 11.2633 3.92927
1 2.17491 13.4471 4.39658
1 5.15149 8.02029 7.17761
1 6.87365 2.51678 5.56161
1 7.51834 11.2668 0.78458
1 6.14247 1.56885 10.2669
1 9.42313 0.424269 8.32821
1 9.12556 2.95401 5.5638
1 8.72735 14.7088 12.5416
1 4.354 10.3163 7.29075
1 8.75444 2.23951 1.54037
1 6.24088 7.74204 5.1153
1 4.74592 16.2842 6.92173
1 2.92942 1.23891 15.4258
1 0.555172 3.48137 5.03892
1 3.81207 4.15866 11.0652
1 1.3018 0.116378 0.0254681
1 2.34406 15.47 1.72707
1 12.1013 6.84466 0.848991
1 14.6341 11.5517 10.3569
1 8.14645 0.589176 10.2513
1 12.8122 3.02999 12.2875
1 8.41198 12.5902 13.4773
1 3.22324 6.71856 6.94128
1 5.69345 9.70501 0.643776
1 13.6922 5.87285 10.1723
1 9.98641 5.66196 11.1302
1 9.22136 4.75966 8.92571
1 15.668 4.96843 10.7118
1 4.11845 6.30162 2.2154
1 4.64717 7.55687 11.0642
1 12.9549 8.45102 7.95012
1 5.90846 0.948036 13.8931
1 5.47774 0.623235 1.80481
1 11.2486 11.4582 15.3621
1 7.17211 5.78388 4.12075
1 4.7215 10.8822 13.1315
1 2.08586 10.3388 2.38529
1 15.2931 11.6232 8.04136
1 9.18303 8.53959 7.35321
1 0.0192094 13.1465 0.0171657
1 5.68049 3.60534 7.25413
1 1.49585 13.4527 9.93073
1 12.7775 6.74705 13.6026
1 12.0393 6.51084 7.15475
1 8.29438 12.5381 9.15258
1 15.1011 1.03136 9.84479
1 5.39532 5.99193 0.212522
1 12.4191 3.34807 1.73055
1 13.9657 8.85803 13.2944
1 3.66941 4.01621 13.4007
1 1.37038 4.60339 0.101299
1 10.904 6.78424 15.124
1 2.31549 2.12769 13.4201
1 1.38919 -6.04283e-05 6.26109
1 15.6071 1.2065 0.454164
1 14.214 11.9554 2.49882
1 5.38411 11.862 3.91097
1 15.3166 5.88664 7.12975
