216
Atoms. Timestep: 11
1 0.703874 14.8869 14.8636
1 0.707805 11.9961 13.454
1 5.42567 12.2565 6.29424
1 8.0256 6.49143 2.06214
1 15.0959 15.7815 13.5966
1 7.81264 8.50942 13.1244
1 4.09033 4.43753 3.69206
1 3.56758 0.746684 3.04589
1 13.6626 13.5771 10.64
1 15.1564 2.17607 6.00851
1 14.1428 8.09758 9.84016
1 3.19027 3.16206 0.360998
1 1.47765 3.01061 8.2861
1 13.2007 16.2617 3.52395
1 10.9631 15.4209 11.7624
1 12.9992 8.59927 4.25374
1 1.8464 6.68033 8.89694
1 12.4826 6.56819 4.93191
1 6.07378 3.87222 10.7636
1 14.9652 12.3673 14.676
1 2.80367 6.15584 10.9234
1 10.6259 6.13298 3.93112
1 3.88673 4.64964 6.04327
1 6.11707 7.252 9.13576
1 11.0871 5.1204 2.03224
1 12.2114 13.68 12.4918
1 10.9641 10.2302 11.2925
1 10.4397 9.61 2.25173
1 2.2647 6.6664 0.954548
1 2.98032 2.35461 9.78641
1 3.6776 9.74218 11.2653
1 4.44253 10.0296 2.69719
1 14.0976 10.0263 0.983441
1 7.56681 14.5044 10.6529
1 9.37302 8.16758 11.2932
1 10.6163 11.6326 9.216
1 7.0377 10.7702 12.5378
1 14.9724 8.3049 6.84001
1 6.97204 10.8008 10.0571
1 9.55807 10.1442 0.163749
1 4.27368 13.2965 13.3482
1 9.11998 0.504665 16.0186
1 15.6607 8.31903 0.604342
1 13.4634 3.23598 14.4665
1 12.4745 2.81952 7.53712
1 9.36561 7.94042 3.31026
1 5.69904 3.23461 14.1548
1 8.40557 15.3152 6.43309
1 14.1119 15.809 1.3915
1 13.5218 10.5727 15.1093
1 6.53649 2.60703 1.79763
1 3.21498 0.952624 5.49514
1 10.0529 2.71064 7.73065
1 15.9619 5.46254 5.01788
1 14.3082 6.27482 0.526048
1 11.1395 13.4783 0.570765
1 0.0776396 1.35407 7.82169
1 2.41208 3.08691 6.2262
1 6.81843 4.94982 8.88594
1 12.5284 15.2093 16.0116
1 12.887 13.8097 6.563
1 14.3321 4.53386 2.03051
1 15.3716 13.8643 1.81409
1 6.50078 0.143257 5.5391
1 9.16655 4.57535 0.977779
1 12.0322 13.6114 8.8108
1 13.2926 0.665622 8.59971
1 9.84041 1.59153 3.74845
1 1.98365 10.7406 15.0322
1 4.40373 8.08288 3.74506
1 9.78781 6.29579 7.26868
1 4.93495 0.0615908 15.7643
1 0.150481 13.7386 7.93787
1 4.24576 6.20728 14.4071
1 11.3071 1.16836 12.7624
1 0.983004 8.16701 2.09162
1 0.775161 6.13767 12.3229
1 0.860576 2.40812 3.23053
1 11.8434 14.5667 4.4462
1 6.05881 15.387 3.36269
1 1.3281 15.1188 11.3526
1 11.2648 0.810606 15.2108
1 11.9327 12.8404 2.83206
1 7.93312 8.69738 9.39262
1 1.25876 9.59916 11.2447
1 7.79544 12.854 6.76698
1 7.5333 12.1582 3.06339
1 8.6316 11.3854 4.90685
1 1.89195 11.9058 0.63047
1 14.5502 15.3078 7.1388
1 13.3339 9.71385 11.214
1 6.99343 7.58629 0.409032
1 8.93762 14.5493 0.619706
1 2.15119 10.0599 6.28106
1 9.02472 4.17504 12.8775
1 2.46356 8.00966 5.23191
1 1.36869 11.3346 4.42855
1 7.43489 13.1492 15.6666
1 0.373073 8.49067 9.43501
1 6.17715 3.76294 3.74771
1 12.2008 5.32736 11.7446
1 13.6147 14.2457 14.2131
1 11.1623 9.88176 7.56548
1 9.14936 1.78286 12.2776
1 0.311752 4.87124 14.207
1 8.1289 14.4399 2.83178
1 1.93203 13.9186 13.3082
1 13.8994 11.7899 6.18581
1 4.58973 10.9973 9.50975
1 14.3597 5.36115 14.7183
1 13.3267 4.98396 8.08417
1 8.88719 8.19824 15.236
1 11.7761 2.93768 15.8051
1 14.9953 1.58135 14.5825
1 12.1185 1.95238 3.56735
1 9.15083 5.23625 5.26317
1 3.87765 13.3094 9.57921
1 14.8311 0.174211 5.10453
1 1.92556 14.1548 6.52736
1 15.0804 8.88834 4.68932
1 5.96369 6.88674 12.932
1 4.06691 9.79561 15.0914
1 2.69183 0.816768 11.5014
1 13.214 2.99441 5.38229
1 15.2989 11.2019 4.45442
1 5.10361 14.0272 15.5208
1 9.63415 15.4884 4.40491
1 5.21676 14.3386 11.3354
1 0.147356 2.71601 13.3288
1 10.6741 11.8828 13.1425
1 12.4244 8.79147 2.00045
1 4.32587 13.6426 3.25874
1 0.479522 11.6634 11.2528
1 0.284868 9.74791 7.68873
1 8.10986 0.394668 13.8585
1 0.808794 14.676 3.08786
1 15.3127 15.4359 11.2214
1 15.0598 2.82219 11.3887
1 16.0957 3.24799 1.46777
1 0.0854146 8.3486 12.9297
1 6.8565 4.64102 12.7491
1 12.0909 10.4074 5.56066
1 4.91175 0.297449 11.8115
1 11.3253 15.6985 9.36652
1 13.9632 4.97236 4.29622
1 2.87671 7.70281 15.1903
1 3.59157 13.5538 1.05951
1 0.462145 5.02978 8.67729
1 4.85514 1.70689 8.48298
1 0.394725 0.232269 4.16545
1 8.18366 9.01971 5.20463
1 0.877457 8.69252 14.9934
1 0.486124 7.4471 4.13636
1 5.47252 3.78847 0.0857856
1 4.12136 14.0632 7.35865
1 10.0559 4.56785 15.1264
1 2.95739 2.74064 2.60464
1 10.6909 11.2703 3.93321
1 2.16905 13.4525 4.39836
1 5.15406 8.01555 7.17598
1 6.87664 2.52296 5.55981
1 7.51614 11.2693 0.782049
1 6.14285 1.5664 10.2505
1 9.42183 0.425387 8.34102
1 9.12023 2.95765 5.56263
1 8.71481 14.7004 12.5304
1 4.35393 10.3197 7.29527
1 8.73931 2.24459 1.53987
1 6.24362 7.74566 5.11442
1 4.75047 16.2878 6.91744
1 2.91625 1.23122 15.4301
1 0.551851 3.4862 5.02051
1 3.81187 4.16979 11.0645
1 1.31378 0.113229 0.0189212
1 2.33536 15.4616 1.73164
1 12.1029 6.84956 0.850512
1 14.6341 11.5603 10.3582
1 8.13486 0.595148 10.2426
1 12.8109 3.02597 12.2951
1 8.41626 12.5968 13.4722
1 3.22241 6.72418 6.93488
1 5.69319 9.7074 0.641819
1 13.6933 5.8683 10.1769
1 9.99896 5.6591 11.1313
1 9.22175 4.76262 8.92008
1 15.6577 4.96945 10.707
1 4.11157 6.30251 2.21039
1 4.64102 7.55255 11.0665
1 12.9634 8.45529 7.95158
1 5.91339 0.946877 13.9016
1 5.47462 0.61981 1.82916
1 11.244 11.455 15.3535
1 7.17827 5.78734 4.11342
1 4.72155 10.876 13.1385
1 2.08635 10.3444 2.38157
1 15.2906 11.62 8.03523
1 9.18334 8.53393 7.35447
1 0.00759192 13.1407 0.00683067
1 5.68523 3.60633 7.25179
1 1.49027 13.4704 9.9405
1 12.7766 6.74529 13.6065
1 12.0422 6.50206 7.15784
1 8.2908 12.5338 9.15138
1 15.0896 1.02924 9.83109
1 5.41116 5.98414 0.215155
1 12.4154 3.35904 1.7302
1 13.9622 8.85758 13.2875
1 3.67636 4.01369 13.4021
1 1.37727 4.60214 0.0984726
1 10.9064 6.78361 15.1258
1 2.31165 2.13552 13.4268
1 1.37894 0.0105395 6.24719
1 15.6095 1.2099 0.44791
1 14.2207 11.957 2.49819
1 5.37462 11.879 3.90484
1 15.3193 5.87803 7.12247
