216
Atoms. Timestep: 0
1 0.71446 14.878 14.86
1 0.70627 12.005 13.459
1 5.4245 12.255 6.2932
1 8.0233 6.4979 2.0653
1 15.088 15.782 13.601
1 7.8134 8.5081 13.127
1 4.0971 4.4339 3.6927
1 3.5742 0.75981 3.0388
1 13.664 13.569 10.641
1 15.152 2.1593 6.0016
1 14.135 8.0987 9.8303
1 3.1874 3.1623 0.36326
1 1.4788 3.0053 8.2873
1 13.201 16.266 3.526
1 10.968 15.425 11.769
1 13.013 8.5941 4.2602
1 1.8411 6.6718 8.8981
1 12.478 6.5696 4.9267
1 6.0729 3.874 10.765
1 14.977 12.373 14.683
1 2.8077 6.1511 10.922
1 10.622 6.1317 3.9309
1 3.8769 4.6422 6.0423
1 6.1176 7.2549 9.1315
1 11.089 5.1169 2.0368
1 12.212 13.686 12.491
1 10.967 10.23 11.294
1 10.446 9.6015 2.2513
1 2.2656 6.6692 0.95957
1 2.9764 2.3537 9.7839
1 3.678 9.7439 11.263
1 4.4431 10.022 2.7039
1 14.097 10.023 0.98045
1 7.5728 14.507 10.664
1 9.3713 8.1682 11.294
1 10.617 11.633 9.2145
1 7.0363 10.771 12.54
1 14.969 8.312 6.8477
1 6.9746 10.802 10.054
1 9.5604 10.143 0.1654
1 4.2725 13.298 13.347
1 9.123 0.50437 16.014
1 15.667 8.3215 0.61305
1 13.465 3.2294 14.469
1 12.482 2.824 7.5258
1 9.3658 7.9296 3.3056
1 5.6965 3.2377 14.154
1 8.4052 15.317 6.4281
1 14.111 15.808 1.3936
1 13.525 10.575 15.114
1 6.5378 2.6032 1.7976
1 3.2051 0.94588 5.4988
1 10.052 2.7112 7.7296
1 15.959 5.4545 5.0195
1 14.306 6.2698 0.52562
1 11.141 13.481 0.57045
1 0.07613 1.3579 7.8132
1 2.4133 3.0921 6.2264
1 6.816 4.9463 8.8879
1 12.53 15.208 16.009
1 12.891 13.807 6.5652
1 14.331 4.5322 2.0285
1 15.379 13.86 1.8074
1 6.4945 0.14292 5.5456
1 9.1737 4.5779 0.97429
1 12.031 13.619 8.8115
1 13.308 0.66653 8.6094
1 9.8449 1.5947 3.7513
1 1.9909 10.729 15.038
1 4.4087 8.0892 3.7405
1 9.7907 6.2973 7.2698
1 4.9353 0.06294 15.758
1 0.15698 13.74 7.9347
1 4.2366 6.2162 14.41
1 11.304 1.1662 12.754
1 0.97485 8.1594 2.0914
1 0.77545 6.1344 12.328
1 0.86741 2.4157 3.2371
1 11.843 14.567 4.4455
1 6.051 15.398 3.3506
1 1.3284 15.111 11.343
1 11.265 0.81686 15.216
1 11.928 12.836 2.8377
1 7.9309 8.6961 9.3901
1 1.2531 9.6065 11.243
1 7.7958 12.851 6.7676
1 7.5351 12.157 3.0686
1 8.637 11.386 4.9001
1 1.8899 11.902 0.62425
1 14.548 15.309 7.1343
1 13.337 9.7086 11.212
1 6.9915 7.5726 0.41539
1 8.9353 14.549 0.62222
1 2.1499 10.059 6.2808
1 9.0134 4.1764 12.878
1 2.4625 8.0064 5.2386
1 1.3687 11.339 4.4299
1 7.4365 13.147 15.669
1 0.37189 8.5028 9.4171
1 6.1722 3.7669 3.7481
1 12.201 5.3302 11.737
1 13.617 14.25 14.21
1 11.172 9.8796 7.5584
1 9.1551 1.7775 12.281
1 0.3112 4.8746 14.203
1 8.1269 14.44 2.8308
1 1.9219 13.919 13.319
1 13.902 11.791 6.1853
1 4.5864 10.993 9.5076
1 14.36 5.3608 14.72
1 13.323 4.9897 8.0829
1 8.8872 8.1992 15.235
1 11.785 2.9327 15.8
1 14.996 1.5864 14.578
1 12.12 1.95 3.5665
1 9.1574 5.2398 5.2555
1 3.8781 13.311 9.5769
1 14.865 0.18554 5.1042
1 1.9199 14.157 6.5242
1 15.07 8.8818 4.6913
1 5.9605 6.885 12.934
1 4.0538 9.7978 15.088
1 2.6946 0.8181 11.499
1 13.224 2.9865 5.3919
1 15.297 11.202 4.4588
1 5.1016 14.031 15.522
1 9.6347 15.485 4.4068
1 5.216 14.342 11.336
1 0.14386 2.7105 13.334
1 10.673 11.882 13.148
1 12.415 8.7938 1.9996
1 4.3251 13.634 3.2532
1 0.48113 11.655 11.261
1 0.28258 9.7369 7.7005
1 8.1054 0.39828 13.859
1 0.81405 14.682 3.0882
1 15.316 15.439 11.221
1 15.062 2.8226 11.388
1 16.092 3.2452 1.4758
1 0.09088 8.3496 12.936
1 6.8602 4.6347 12.748
1 12.087 10.407 5.5681
1 4.9085 0.29528 11.81
1 11.325 15.692 9.3622
1 13.972 4.9767 4.3011
1 2.8732 7.7089 15.181
1 3.5925 13.557 1.0675
1 0.46731 5.0363 8.6754
1 4.8602 1.7019 8.492
1 0.37216 0.23302 4.1862
1 8.1768 9.0183 5.2058
1 0.89216 8.6905 14.988
1 0.48506 7.4491 4.132
1 5.4727 3.7976 0.08507
1 4.1203 14.067 7.3595
1 10.053 4.5693 15.133
1 2.9554 2.7273 2.609
1 10.689 11.275 3.9357
1 2.1653 13.456 4.3995
1 5.1557 8.0125 7.175
1 6.8786 2.5269 5.5587
1 7.5147 11.271 0.78038
1 6.1431 1.5648 10.24
1 9.421 0.4261 8.3492
1 9.1168 2.9599 5.5619
1 8.7067 14.695 12.523
1 4.3539 10.322 7.2982
1 8.7296 2.2478 1.5396
1 6.2454 7.748 5.1139
1 4.7535 0 6.9146
1 2.9077 1.2262 15.433
1 0.54964 3.4893 5.0085
1 3.8117 4.177 11.064
1 1.3216 0.11146 0.01468
1 2.3298 15.456 1.7345
1 12.104 6.8527 0.85143
1 14.634 11.566 10.359
1 8.1275 0.59895 10.237
1 12.81 3.0234 12.3
1 8.419 12.601 13.469
1 3.2219 6.7279 6.9307
1 5.6931 9.709 0.6406
1 13.694 5.8653 10.18
1 10.007 5.6573 11.132
1 9.222 4.7645 8.9165
1 15.651 4.9701 10.704
1 4.1071 6.3031 2.2072
1 4.6371 7.5498 11.068
1 12.969 8.4581 7.9526
1 5.9166 0.94604 13.907
1 5.4726 0.61741 1.845
1 11.241 11.453 15.348
1 7.1823 5.7896 4.1087
1 4.7216 10.872 13.143
1 2.0867 10.348 2.3792
1 15.289 11.618 8.0313
1 9.1835 8.5303 7.3553
1 0 13.137 0
1 5.6883 3.607 7.2503
1 1.4867 13.482 9.9469
1 12.776 6.7442 13.609
1 12.044 6.4963 7.1599
1 8.2885 12.531 9.1506
1 15.082 1.0278 9.8222
1 5.4215 5.9791 0.2169
1 12.413 3.3661 1.73
1 13.96 8.8573 13.283
1 3.6808 4.012 13.403
1 1.3817 4.6013 0.09666
1 10.908 6.7832 15.127
1 2.3092 2.1405 13.431
1 1.3719 0.01762 6.238
1 15.611 1.2121 0.44399
1 14.225 11.958 2.4978
1 5.3685 11.89 3.9009
1 15.321 5.8725 7.1177
