216
Atoms. Timestep: 10
1 0.70568 14.8855 14.863
1 0.707558 11.9976 13.4549
1 5.42546 12.2562 6.29406
1 8.02522 6.49252 2.06267
1 15.0946 15.7816 13.5973
1 7.81277 8.50919 13.1249
1 4.09147 4.4369 3.69217
1 3.5687 0.748907 3.04468
1 13.6629 13.5757 10.6402
1 15.1556 2.17328 6.00735
1 14.1414 8.09776 9.83849
1 3.18978 3.16209 0.361393
1 1.47784 3.00971 8.2863
1 13.2008 16.2624 3.52432
1 10.9639 15.4216 11.7635
1 13.0015 8.59839 4.25483
1 1.8455 6.67889 8.89714
1 12.4818 6.56842 4.93102
1 6.07363 3.87252 10.7638
1 14.9672 12.3683 14.6772
1 2.80435 6.15504 10.9232
1 10.6253 6.13276 3.93107
1 3.88505 4.64838 6.0431
1 6.11716 7.25249 9.13503
1 11.0874 5.11981 2.03302
1 12.2115 13.681 12.4917
1 10.9646 10.2302 11.2928
1 10.4408 9.60855 2.25166
1 2.26486 6.66688 0.955393
1 2.97966 2.35445 9.78599
1 3.67766 9.74247 11.2649
1 4.44263 10.0284 2.69834
1 14.0975 10.0257 0.982939
1 7.56783 14.5048 10.6548
1 9.37272 8.16768 11.2933
1 10.6164 11.6326 9.21573
1 7.03746 10.7704 12.5382
1 14.9718 8.30611 6.84129
1 6.97247 10.801 10.0565
1 9.55847 10.144 0.164036
1 4.27347 13.2967 13.348
1 9.12049 0.504617 16.0178
1 15.6618 8.31945 0.605816
1 13.4637 3.23487 14.4669
1 12.4758 2.82029 7.5352
1 9.36565 7.93859 3.30946
1 5.69861 3.23514 14.1547
1 8.4055 15.3155 6.43224
1 14.1117 15.8088 1.39186
1 13.5224 10.5731 15.1101
1 6.53669 2.60638 1.79763
1 3.21329 0.951474 5.49576
1 10.0527 2.71074 7.73046
1 15.9614 5.46119 5.01815
1 14.3078 6.27397 0.525978
1 11.1397 13.4788 0.570712
1 0.0773988 1.35475 7.82026
1 2.41225 3.08778 6.22624
1 6.81801 4.94922 8.88628
1 12.5287 15.209 16.0111
1 12.8876 13.8092 6.56338
1 14.3319 4.53357 2.03018
1 15.3729 13.8635 1.81295
1 6.49971 0.143205 5.5402
1 9.16777 4.57579 0.977196
1 12.032 13.6127 8.81092
1 13.2952 0.665772 8.60135
1 9.84118 1.59207 3.74894
1 1.98486 10.7387 15.0332
1 4.40458 8.08394 3.74429
1 9.78831 6.29605 7.26887
1 4.93501 0.0618296 15.7632
1 0.151589 13.7389 7.93733
1 4.24419 6.2088 14.4076
1 11.3066 1.16799 12.761
1 0.981621 8.16571 2.09159
1 0.775214 6.13711 12.3237
1 0.861733 2.4094 3.23164
1 11.8433 14.5667 4.44609
1 6.05749 15.3889 3.36064
1 1.32815 15.1175 11.351
1 11.2648 0.811667 15.2117
1 11.9319 12.8396 2.83303
1 7.93274 8.69716 9.39219
1 1.25779 9.6004 11.2444
1 7.7955 12.8535 6.76708
1 7.5336 12.158 3.06428
1 8.63253 11.3855 4.9057
1 1.8916 11.9051 0.629402
1 14.5499 15.308 7.13802
1 13.3344 9.71296 11.2136
1 6.99311 7.58396 0.410117
1 8.93722 14.5492 0.620136
1 2.15096 10.0597 6.28103
1 9.0228 4.17526 12.8776
1 2.46337 8.00911 5.23304
1 1.36869 11.3354 4.42879
1 7.43516 13.1488 15.667
1 0.372892 8.49272 9.432
1 6.17633 3.76362 3.74777
1 12.2008 5.32784 11.7433
1 13.6151 14.2465 14.2126
1 11.164 9.88138 7.56428
1 9.15032 1.78195 12.2782
1 0.311655 4.8718 14.2063
1 8.12854 14.44 2.83162
1 1.93032 13.9187 13.31
1 13.8998 11.7901 6.18572
1 4.58916 10.9966 9.50939
1 14.3597 5.36108 14.7186
1 13.3261 4.98493 8.08396
1 8.88719 8.1984 15.2358
1 11.7776 2.93684 15.8043
1 14.9954 1.5822 14.5817
1 12.1188 1.95199 3.56721
1 9.15195 5.23685 5.26187
1 3.87773 13.3097 9.57882
1 14.8367 0.176094 5.10448
1 1.9246 14.1552 6.52681
1 15.0786 8.88722 4.68967
1 5.96314 6.88643 12.9324
1 4.0647 9.79599 15.0908
1 2.69229 0.816995 11.501
1 13.2158 2.99306 5.38391
1 15.2986 11.2019 4.45517
1 5.10327 14.0278 15.521
1 9.63424 15.4878 4.40523
1 5.21663 14.3392 11.3355
1 0.146769 2.71507 13.3297
1 10.6739 11.8827 13.1434
1 12.4229 8.79187 2.00031
1 4.32572 13.6412 3.25779
1 0.479787 11.662 11.2542
1 0.284483 9.74607 7.6907
1 8.1091 0.39528 13.8586
1 0.809668 14.677 3.08794
1 15.3133 15.4364 11.2213
1 15.0602 2.82225 11.3886
1 16.0951 3.2475 1.46916
1 0.0863535 8.34878 12.9307
1 6.85711 4.63994 12.7489
1 12.0902 10.4073 5.56191
1 4.9112 0.297086 11.8112
1 11.3253 15.6974 9.36579
1 13.9646 4.97309 4.29704
1 2.87612 7.70381 15.1887
1 3.59172 13.5543 1.06087
1 0.463017 5.03087 8.67696
1 4.85599 1.70604 8.48451
1 0.391001 0.232362 4.16887
1 8.18249 9.01947 5.20483
1 0.879937 8.69216 14.9925
1 0.485925 7.44743 4.13563
1 5.47256 3.79001 0.0856644
1 4.12117 14.0639 7.35879
1 10.0554 4.56809 15.1275
1 2.95705 2.7384 2.60538
1 10.6905 11.2711 3.93364
1 2.16841 13.4531 4.39855
1 5.15434 8.01503 7.17581
1 6.87697 2.52364 5.55962
1 7.51589 11.2696 0.781769
1 6.14289 1.56613 10.2488
1 9.42168 0.425509 8.34241
1 9.11965 2.95805 5.5625
1 8.71343 14.6995 12.5291
1 4.35392 10.3201 7.29577
1 8.73765 2.24514 1.53982
1 6.24392 7.74605 5.11433
1 4.75097 16.2881 6.91697
1 2.91481 1.23038 15.4306
1 0.551483 3.48673 5.01849
1 3.81184 4.17102 11.0644
1 1.3151 0.112901 0.0182025
1 2.33441 15.4607 1.73213
1 12.1031 6.85009 0.850675
1 14.6341 11.5613 10.3583
1 8.13359 0.595799 10.2416
1 12.8107 3.02553 12.296
1 8.41673 12.5975 13.4717
1 3.22232 6.7248 6.93418
1 5.69317 9.70767 0.641607
1 13.6934 5.86779 10.1774
1 10.0003 5.65879 11.1314
1 9.22179 4.76295 8.91947
1 15.6565 4.96957 10.7065
1 4.11082 6.30261 2.20984
1 4.64035 7.55208 11.0667
1 12.9644 8.45576 7.95175
1 5.91393 0.946744 13.9025
1 5.47428 0.619423 1.83184
1 11.2435 11.4547 15.3526
1 7.17895 5.78772 4.11262
1 4.72156 10.8753 13.1393
1 2.0864 10.345 2.38117
1 15.2904 11.6197 8.03456
1 9.18338 8.53331 7.35461
1 0.00631239 13.1401 0.00568797
1 5.68575 3.60644 7.25154
1 1.48966 13.4724 9.94158
1 12.7765 6.7451 13.6069
1 12.0425 6.5011 7.15818
1 8.29041 12.5333 9.15125
1 15.0884 1.029 9.82958
1 5.4129 5.98328 0.215446
1 12.415 3.36024 1.73017
1 13.9619 8.85753 13.2867
1 3.67712 4.01341 13.4023
1 1.37803 4.602 0.0981635
1 10.9067 6.78354 15.126
1 2.31123 2.13637 13.4275
1 1.37779 0.011716 6.24565
1 15.6098 1.21028 0.447232
1 14.2215 11.9572 2.49813
1 5.37358 11.8809 3.90417
1 15.3196 5.87709 7.12167
