216
Atoms. Timestep: 18
1 0.668724 14.9144 14.8741
1 0.712149 11.9686 13.4381
1 5.42977 12.2613 6.29793
1 8.0328 6.4702 2.05169
1 15.1219 15.7793 13.5817
1 7.81036 8.51391 13.1159
1 4.0685 4.45005 3.69024
1 3.54635 0.703823 3.06907
1 13.6582 13.6038 10.6367
1 15.1716 2.22878 6.03065
1 14.1691 8.09434 9.87235
1 3.19984 3.16177 0.352982
1 1.4742 3.02783 8.28244
1 13.1979 16.2471 3.51602
1 10.9467 15.4078 11.7408
1 12.9551 8.61657 4.23308
1 1.86348 6.70781 8.89319
1 12.4983 6.56398 4.94918
1 6.07687 3.86657 10.759
1 14.9273 12.3489 14.6532
1 2.79077 6.17143 10.9282
1 10.6381 6.13734 3.93242
1 3.91923 4.67388 6.04663
1 6.11549 7.24259 9.14996
1 11.0811 5.13156 2.01676
1 12.2094 13.6599 12.4942
1 10.9541 10.231 11.2874
1 10.4198 9.63833 2.25263
1 2.26159 6.65694 0.938433
1 2.99297 2.35754 9.79454
1 3.67667 9.7365 11.273
1 4.4405 10.0541 2.67506
1 14.0996 10.0375 0.992933
1 7.54731 14.4954 10.6165
1 9.37879 8.16555 11.2904
1 10.6138 11.6311 9.22134
1 7.04227 10.7676 12.5303
1 14.9839 8.28156 6.81576
1 6.96373 10.7971 10.0674
1 9.55021 10.1483 0.157963
1 4.27812 13.2913 13.3522
1 9.11005 0.505501 16.034
1 15.6401 8.31093 0.576023
1 13.4578 3.25752 14.4584
1 12.4497 2.80428 7.57429
1 9.36449 7.97571 3.3263
1 5.70747 3.22422 14.1573
1 8.40695 15.309 6.44961
1 14.1147 15.8124 1.3845
1 13.5107 10.5647 15.0937
1 6.53321 2.61965 1.79746
1 3.2479 0.975021 5.48331
1 10.0555 2.70872 7.73436
1 15.9706 5.48842 5.01283
1 14.3151 6.29143 0.527317
1 11.1343 13.4694 0.571777
1 0.0818872 1.34018 7.84913
1 2.40961 3.07046 6.22564
1 6.82654 4.96144 8.87933
1 12.5229 15.2132 16.0204
1 12.8734 13.8187 6.55571
1 14.3357 4.53941 2.03671
1 15.3462 13.8783 1.83634
1 6.52165 0.144079 5.518
1 9.14251 4.56643 0.988797
1 12.0359 13.5863 8.80856
1 13.2428 0.662841 8.56801
1 9.82545 1.58086 3.73879
1 1.96077 10.777 15.0129
1 4.38703 8.06277 3.75976
1 9.7779 6.29094 7.2653
1 4.93402 0.0566564 15.7846
1 0.128883 13.734 7.94843
1 4.27628 6.17783 14.3971
1 11.317 1.17521 12.7903
1 1.0097 8.19234 2.09184
1 0.774051 6.14853 12.3061
1 0.838302 2.3837 3.20906
1 11.8443 14.5657 4.44827
1 6.08411 15.3519 3.40209
1 1.32696 15.1436 11.3835
1 11.2639 0.790124 15.1938
1 11.9482 12.8548 2.81324
1 7.94046 8.70161 9.40117
1 1.27767 9.57564 11.2508
1 7.79415 12.8642 6.76522
1 7.52768 12.162 3.0461
1 8.61353 11.3834 4.92921
1 1.89894 11.9183 0.651476
1 14.5574 15.3041 7.15429
1 13.3234 9.73137 11.2212
1 6.99967 7.63174 0.387897
1 8.9453 14.5501 0.611294
1 2.15592 10.0631 6.28142
1 9.06197 4.17085 12.8756
1 2.46732 8.02033 5.21014
1 1.36887 11.3197 4.42397
1 7.42954 13.1563 15.6588
1 0.375993 8.45141 9.49222
1 6.19274 3.74967 3.7467
1 12.1995 5.31808 11.7698
1 13.6071 14.232 14.2233
1 11.1301 9.88931 7.58857
1 9.13089 1.8005 12.2663
1 0.31374 4.8604 14.22
1 8.13611 14.4395 2.83488
1 1.96484 13.9172 13.2732
1 13.8909 11.7863 6.18747
1 4.60085 11.0116 9.51692
1 14.3587 5.36277 14.7128
1 13.3387 4.96502 8.08813
1 8.88721 8.19528 15.239
1 11.7463 2.95381 15.8216
1 14.9931 1.56502 14.5971
1 12.1132 1.95953 3.57004
1 9.12898 5.22494 5.28816
1 3.87641 13.304 9.58682
1 14.7258 0.13888 5.10599
1 1.94452 14.1463 6.5383
1 15.1134 8.91012 4.68184
1 5.97454 6.89296 12.9251
1 4.10927 9.78793 15.1026
1 2.68301 0.812381 11.5093
1 13.1805 3.02069 5.35128
1 15.3052 11.2023 4.4398
1 5.11042 14.0142 15.5166
1 9.63223 15.4999 4.3988
1 5.21921 14.3273 11.3336
1 0.15851 2.73415 13.3119
1 10.6777 11.8852 13.1242
1 12.4547 8.78401 2.00279
1 4.32893 13.6705 3.27746
1 0.474597 11.6905 11.2247
1 0.292206 9.78262 7.65157
1 8.12461 0.382912 13.857
1 0.792377 14.6547 3.08572
1 15.3019 15.4254 11.2226
1 15.0524 2.8211 11.3915
1 16.1076 3.2576 1.4405
1 0.0669324 8.34522 12.9085
1 6.84509 4.66204 12.7528
1 12.1034 10.4082 5.53676
1 4.92217 0.3043 11.8164
1 11.3263 15.7199 9.38048
1 13.9349 4.95821 4.28058
1 2.88759 7.68442 15.2209
1 3.58886 13.5434 1.03307
1 0.445439 5.00924 8.68389
1 4.83865 1.7238 8.45365
1 0.464087 0.231419 4.10228
1 8.20638 9.02434 5.2009
1 0.829828 8.69985 15.0112
1 0.490504 7.44105 4.15009
1 5.47186 3.75878 0.0881121
1 4.12515 14.0504 7.35615
1 10.0655 4.56322 15.1046
1 2.96388 2.78339 2.59025
1 10.6968 11.2556 3.92475
1 2.18154 13.4409 4.39459
1 5.14855 8.02562 7.17956
1 6.87037 2.50975 5.56371
1 7.52077 11.2639 0.787342
1 6.14207 1.57155 10.2851
1 9.42461 0.423002 8.31371
1 9.13156 2.94971 5.56517
1 8.7414 14.7181 12.5541
1 4.35413 10.3125 7.28572
1 8.77153 2.23366 1.54102
1 6.23783 7.73802 5.11638
1 4.74102 16.28 6.9264
1 2.94407 1.24741 15.421
1 0.558765 3.47596 5.05926
1 3.81224 4.14623 11.0661
1 1.28851 0.120418 0.0327792
1 2.35394 15.4791 1.72173
1 12.0994 6.83913 0.847148
1 14.6339 11.5421 10.3554
1 8.15971 0.582362 10.2611
1 12.8138 3.03454 12.2788
1 8.40714 12.5828 13.4831
1 3.22422 6.71245 6.94836
1 5.6939 9.70245 0.646063
1 13.691 5.87784 10.1673
1 9.97225 5.66523 11.129
1 9.22094 4.75625 8.93213
1 15.6796 4.96725 10.7172
1 4.12609 6.30063 2.22113
1 4.65418 7.5618 11.0616
1 12.9454 8.44637 7.94863
1 5.90299 0.94915 13.8837
1 5.48126 0.626731 1.77774
1 11.2538 11.4618 15.3717
1 7.1653 5.78004 4.12899
1 4.72145 10.8893 13.1235
1 2.0854 10.3325 2.38951
1 15.2958 11.627 8.0483
1 9.18257 8.54597 7.35183
1 0.0320442 13.1531 0.0284739
1 5.67522 3.60428 7.25679
1 1.50219 13.433 9.91992
1 12.7785 6.74915 13.5983
1 12.0361 6.52047 7.15143
1 8.2984 12.5429 9.1539
1 15.1136 1.0336 9.8601
1 5.37787 6.00063 0.209678
1 12.4233 3.33572 1.73098
1 13.9695 8.85858 13.3022
1 3.66151 4.01889 13.3991
1 1.3626 4.60473 0.104481
1 10.9013 6.78494 15.1218
1 2.31987 2.11877 13.4124
1 1.39991 -0.0115228 6.2763
1 15.6041 1.20269 0.461407
1 14.2063 11.9537 2.49953
1 5.39478 11.843 3.91787
1 15.3136 5.89632 7.13776
