216
Atoms. Timestep: 16
1 0.677525 14.9079 14.8717
1 0.711186 11.9752 13.442
1 5.4287 12.2601 6.29697
1 8.03108 6.47547 2.0543
1 15.1155 15.7799 13.5855
1 7.81089 8.51277 13.118
1 4.07386 4.44684 3.69065
1 3.55152 0.714449 3.06332
1 13.6593 13.5972 10.6376
1 15.1677 2.216 6.02521
1 14.1625 8.09508 9.86436
1 3.19744 3.16177 0.355071
1 1.47501 3.02359 8.2833
1 13.1989 16.2508 3.5182
1 10.9509 15.411 11.7462
1 12.9659 8.61223 4.23813
1 1.85928 6.70106 8.89412
1 12.4943 6.56496 4.94487
1 6.07607 3.86794 10.7601
1 14.9366 12.3535 14.6588
1 2.79392 6.16755 10.927
1 10.6352 6.13623 3.93201
1 3.91111 4.66788 6.04577
1 6.11586 7.24491 9.1464
1 11.0826 5.12884 2.02068
1 12.21 13.6649 12.4937
1 10.9566 10.2308 11.2887
1 10.4247 9.63122 2.25249
1 2.2624 6.65933 0.942373
1 2.98986 2.35682 9.79253
1 3.67683 9.73792 11.2711
1 4.44103 10.0481 2.68058
1 14.0991 10.0347 0.990628
1 7.55214 14.4977 10.6256
1 9.37734 8.16605 11.2911
1 10.6145 11.6315 9.21994
1 7.04114 10.7683 12.5322
1 14.981 8.28736 6.82163
1 6.96577 10.798 10.0648
1 9.55219 10.1472 0.159462
1 4.27692 13.2926 13.3512
1 9.11252 0.505315 16.0301
1 15.6452 8.31294 0.583017
1 13.4593 3.25218 14.4604
1 12.456 2.80815 7.56505
1 9.36485 7.96697 3.3222
1 5.70536 3.22685 14.1567
1 8.40657 15.3106 6.44548
1 14.114 15.8115 1.38626
1 13.5136 10.5668 15.0976
1 6.53386 2.61651 1.79755
1 3.23964 0.969411 5.48622
1 10.0549 2.70921 7.73339
1 15.9685 5.48208 5.01403
1 14.3134 6.28728 0.527025
1 11.1356 13.4716 0.571529
1 0.0809313 1.34383 7.84234
1 2.40997 3.07446 6.22576
1 6.8245 4.95855 8.88101
1 12.5243 15.2122 16.0182
1 12.8768 13.8165 6.55754
1 14.3348 4.53801 2.03524
1 15.3527 13.8748 1.83076
1 6.51642 0.143922 5.5232
1 9.14858 4.56874 0.98613
1 12.035 13.5926 8.80911
1 13.2551 0.663506 8.57588
1 9.8292 1.58355 3.74123
1 1.96631 10.7682 15.0177
1 4.39124 8.06767 3.75615
1 9.78043 6.29213 7.26609
1 4.93422 0.0579699 15.7795
1 0.134293 13.7352 7.94578
1 4.26862 6.18518 14.3997
1 11.3145 1.17354 12.7833
1 1.00307 8.186 2.09186
1 0.774353 6.14581 12.3102
1 0.843814 2.38969 3.21439
1 11.8441 14.566 4.44779
1 6.07787 15.3605 3.39233
1 1.32727 15.1375 11.3759
1 11.2641 0.79521 15.198
1 11.9443 12.8512 2.81797
1 7.93862 8.70056 9.399
1 1.27291 9.5814 11.2492
1 7.79448 12.8616 6.76561
1 7.52903 12.161 3.05042
1 8.61808 11.3839 4.92362
1 1.89717 11.9152 0.646162
1 14.5557 15.305 7.15032
1 13.3261 9.72697 11.2193
1 6.99813 7.62036 0.393192
1 8.94338 14.5499 0.61341
1 2.15466 10.0623 6.28142
1 9.05269 4.17184 12.8761
1 2.46634 8.01769 5.21552
1 1.36879 11.3235 4.42513
1 7.43088 13.1546 15.6607
1 0.375419 8.4611 9.47822
1 6.18897 3.75302 3.74691
1 12.1999 5.32038 11.7636
1 13.609 14.2354 14.2208
1 11.1382 9.88736 7.58286
1 9.13542 1.79611 12.2691
1 0.313218 4.86306 14.2167
1 8.13421 14.4397 2.83413
1 1.95674 13.9175 13.2818
1 13.893 11.7872 6.18706
1 4.59805 11.008 9.51512
1 14.3589 5.36229 14.7142
1 13.3358 4.96974 8.08718
1 8.88719 8.19598 15.2383
1 11.7538 2.94984 15.8175
1 14.9937 1.56904 14.5935
1 12.1146 1.95786 3.56939
1 9.13447 5.22771 5.28197
1 3.87668 13.3054 9.58492
1 14.7512 0.147406 5.10552
1 1.93975 14.1486 6.53549
1 15.1053 8.90465 4.68385
1 5.97178 6.89132 12.9269
1 4.09881 9.7899 15.0999
1 2.68515 0.813474 11.5074
1 13.189 3.01411 5.3589
1 15.3036 11.2021 4.44348
1 5.1087 14.0175 15.5177
1 9.63272 15.497 4.4003
1 5.21861 14.3302 11.334
1 0.155787 2.72963 13.3161
1 10.6768 11.8846 13.1288
1 12.4473 8.78584 2.00229
1 4.32808 13.6636 3.27272
1 0.475767 11.6839 11.2319
1 0.290411 9.7742 7.6606
1 8.12093 0.385814 13.8574
1 0.796331 14.6603 3.08642
1 15.3046 15.428 11.2223
1 15.0543 2.82133 11.3907
1 16.1047 3.25514 1.44743
1 0.0716141 8.34608 12.9138
1 6.8478 4.65677 12.7519
1 12.1003 10.408 5.54262
1 4.91962 0.302644 11.8152
1 11.3261 15.7146 9.37704
1 13.9418 4.96171 4.28442
1 2.88498 7.68874 15.2133
1 3.58947 13.546 1.03967
1 0.449558 5.0142 8.68218
1 4.84273 1.71952 8.4609
1 0.447486 0.231383 4.11728
1 8.2007 9.02319 5.20181
1 0.841598 8.69792 15.0068
1 0.489266 7.44246 4.14678
1 5.47204 3.76611 0.0875388
1 4.12415 14.0537 7.35672
1 10.0631 4.56435 15.1101
1 2.96228 2.77292 2.59384
1 10.6954 11.2592 3.9269
1 2.17841 13.4438 4.39553
1 5.14994 8.02311 7.17862
1 6.8719 2.51308 5.5627
1 7.51963 11.2653 0.786058
1 6.14225 1.57029 10.2765
1 9.42391 0.423601 8.32056
1 9.12873 2.95178 5.56451
1 8.73479 14.7137 12.5483
1 4.35406 10.3143 7.28808
1 8.76346 2.23644 1.54069
1 6.23926 7.73991 5.11585
1 4.74329 16.282 6.92423
1 2.93719 1.24343 15.4233
1 0.5571 3.47851 5.04975
1 3.81217 4.15207 11.0657
1 1.29473 0.118414 0.0293436
1 2.34926 15.4749 1.72429
1 12.1003 6.84174 0.848044
1 14.634 11.5466 10.3561
1 8.15341 0.585594 10.2565
1 12.813 3.03239 12.2829
1 8.40943 12.5863 13.4804
1 3.22375 6.71529 6.94505
1 5.69366 9.70363 0.644968
1 13.6915 5.87551 10.1696
1 9.97894 5.66367 11.1295
1 9.22114 4.75787 8.92909
1 15.6741 4.96781 10.7146
1 4.12251 6.30109 2.21841
1 4.65086 7.55946 11.0628
1 12.9498 8.44853 7.9493
1 5.90555 0.948663 13.8881
1 5.4796 0.625153 1.79044
1 11.2513 11.4601 15.3671
1 7.16848 5.78184 4.12511
1 4.72147 10.886 13.1273
1 2.0856 10.3354 2.38751
1 15.2946 11.6252 8.04502
1 9.18281 8.54296 7.35248
1 0.0260415 13.1499 0.0232053
1 5.67769 3.60477 7.25553
1 1.49919 13.4422 9.92498
1 12.778 6.74814 13.6003
1 12.0376 6.51598 7.15296
1 8.2965 12.5407 9.15328
1 15.1078 1.03257 9.8529
1 5.38602 5.99654 0.210994
1 12.4213 3.34154 1.73077
1 13.9677 8.85832 13.2985
1 3.66525 4.01766 13.3998
1 1.36627 4.60411 0.102981
1 10.9026 6.78461 15.1228
1 2.31779 2.123 13.4161
1 1.39501 -0.00620951 6.26921
1 15.6055 1.20448 0.457952
1 14.21 11.9545 2.49919
1 5.38975 11.8519 3.91461
1 15.315 5.89176 7.13402
