216
Atoms. Timestep: 19
1 0.664762 14.9173 14.8751
1 0.71253 11.9657 13.4363
1 5.43026 12.2618 6.29837
1 8.03355 6.46784 2.05053
1 15.1248 15.779 13.58
1 7.81014 8.51443 13.1149
1 4.06613 4.45153 3.69008
1 3.54409 0.699081 3.07163
1 13.6577 13.6068 10.6363
1 15.1734 2.23439 6.03306
1 14.1722 8.09404 9.87591
1 3.20092 3.16181 0.352009
1 1.47386 3.02971 8.28208
1 13.1974 16.2455 3.51496
1 10.9449 15.4064 11.7384
1 12.9503 8.61853 4.23085
1 1.86534 6.7108 8.89279
1 12.5001 6.56358 4.95113
1 6.07724 3.86598 10.7584
1 14.9232 12.3469 14.6506
1 2.78938 6.17316 10.9288
1 10.6394 6.13785 3.93264
1 3.92289 4.67656 6.04702
1 6.11534 7.24156 9.15157
1 11.0805 5.13276 2.01497
1 12.2092 13.6576 12.4945
1 10.9529 10.2311 11.2868
1 10.4177 9.64154 2.25266
1 2.26122 6.65585 0.9367
1 2.99434 2.35786 9.79542
1 3.67662 9.73586 11.2739
1 4.44024 10.0567 2.67258
1 14.0999 10.0388 0.993941
1 7.54515 14.4944 10.6125
1 9.37945 8.16532 11.2901
1 10.6135 11.6309 9.222
1 7.04277 10.7673 12.5294
1 14.9852 8.27897 6.81321
1 6.96282 10.7967 10.0686
1 9.54931 10.1488 0.157268
1 4.27869 13.2907 13.3527
1 9.10894 0.505574 16.0358
1 15.6378 8.31003 0.572914
1 13.4571 3.2599 14.4575
1 12.4469 2.80252 7.57842
1 9.3643 7.97961 3.32818
1 5.70843 3.22303 14.1575
1 8.40713 15.3083 6.45146
1 14.1149 15.8128 1.38371
1 13.5094 10.5637 15.092
1 6.53299 2.62105 1.7974
1 3.25163 0.977548 5.48202
1 10.0557 2.7085 7.73482
1 15.9714 5.49122 5.01231
1 14.3159 6.29328 0.527437
1 11.1337 13.4684 0.571887
1 0.082278 1.33847 7.85215
1 2.40955 3.06871 6.22559
1 6.82746 4.96274 8.87857
1 12.5223 15.2136 16.0214
1 12.8719 13.8197 6.55489
1 14.3361 4.54004 2.03734
1 15.3433 13.8799 1.83885
1 6.52401 0.144131 5.5157
1 9.13977 4.56536 0.989959
1 12.0362 13.5836 8.80831
1 13.2373 0.662552 8.56449
1 9.82375 1.57964 3.73767
1 1.95834 10.7809 15.0108
1 4.38513 8.06062 3.76135
1 9.77674 6.29042 7.26497
1 4.93394 0.0560322 15.7868
1 0.126448 13.7335 7.94962
1 4.27973 6.17454 14.3959
1 11.318 1.17595 12.7934
1 1.01266 8.1952 2.0918
1 0.773905 6.14976 12.3042
1 0.835846 2.38106 3.20668
1 11.8444 14.5656 4.44847
1 6.08689 15.3481 3.40644
1 1.32682 15.1462 11.3868
1 11.2637 0.787851 15.1919
1 11.95 12.8565 2.8111
1 7.94128 8.70209 9.40215
1 1.27982 9.5731 11.2516
1 7.79399 12.8653 6.76507
1 7.5271 12.1624 3.04415
1 8.61147 11.3832 4.93173
1 1.89975 11.9197 0.65389
1 14.5582 15.3038 7.15612
1 13.3222 9.73335 11.2221
1 7.00034 7.63686 0.385511
1 8.94616 14.5502 0.610338
1 2.15652 10.0635 6.28139
1 9.06614 4.17042 12.8753
1 2.46778 8.02151 5.20775
1 1.36891 11.3179 4.42343
1 7.42894 13.1571 15.6579
1 0.376191 8.4471 9.49841
1 6.19438 3.74816 3.74663
1 12.1993 5.31705 11.7727
1 13.6062 14.2305 14.2245
1 11.1264 9.89022 7.59112
1 9.12888 1.80247 12.2651
1 0.313986 4.85923 14.2214
1 8.13701 14.4395 2.83521
1 1.96843 13.917 13.2693
1 13.89 11.786 6.18765
1 4.60211 11.0132 9.51773
1 14.3586 5.36301 14.7122
1 13.3401 4.9629 8.08853
1 8.88722 8.19497 15.2393
1 11.7429 2.95556 15.8234
1 14.9929 1.56324 14.5987
1 12.1125 1.96024 3.57032
1 9.12651 5.22372 5.29091
1 3.8763 13.3034 9.58767
1 14.7148 0.13516 5.10625
1 1.94667 14.1451 6.53959
1 15.1169 8.91259 4.68088
1 5.9758 6.89373 12.9243
1 4.11392 9.78702 15.1039
1 2.68207 0.811891 11.5102
1 13.1766 3.02365 5.34791
1 15.3059 11.2024 4.43814
1 5.11121 14.0127 15.5161
1 9.632 15.5012 4.39814
1 5.21948 14.3261 11.3334
1 0.159708 2.73617 13.31
1 10.6781 11.8854 13.1222
1 12.458 8.7832 2.00298
1 4.32934 13.6736 3.27961
1 0.474094 11.6934 11.2215
1 0.292997 9.78631 7.64761
1 8.12626 0.381622 13.8569
1 0.790657 14.6521 3.08535
1 15.3007 15.4242 11.2227
1 15.0516 2.82102 11.3918
1 16.109 3.25874 1.43734
1 0.0648028 8.34482 12.9061
1 6.84392 4.66441 12.7532
1 12.1048 10.4082 5.53417
1 4.9233 0.30502 11.817
1 11.3263 15.7222 9.382
1 13.9319 4.95666 4.27889
1 2.88872 7.68259 15.2243
1 3.58862 13.5422 1.03011
1 0.443609 5.00707 8.68468
1 4.83682 1.72575 8.45042
1 0.471277 0.231531 4.09585
1 8.20893 9.02485 5.2005
1 0.824584 8.70075 15.0131
1 0.491119 7.44045 4.15153
1 5.47177 3.75551 0.0883662
1 4.12561 14.0488 7.35592
1 10.0666 4.56273 15.1022
1 2.96459 2.78802 2.58863
1 10.6975 11.254 3.92377
1 2.18295 13.4395 4.39417
1 5.14792 8.02675 7.18001
1 6.8697 2.50824 5.56418
1 7.52127 11.2633 0.787902
1 6.142 1.57211 10.2889
1 9.42494 0.422731 8.31061
1 9.13283 2.94875 5.56547
1 8.74436 14.7201 12.5567
1 4.35417 10.3117 7.28467
1 8.77516 2.23238 1.54118
1 6.2372 7.73718 5.11663
1 4.74004 16.2791 6.92735
1 2.94712 1.24918 15.4201
1 0.559489 3.47482 5.06347
1 3.81226 4.14362 11.0663
1 1.28575 0.1214 0.0343124
1 2.35606 15.4809 1.72054
1 12.0991 6.83796 0.846723
1 14.6338 11.5401 10.3551
1 8.16258 0.580893 10.2632
1 12.8141 3.0355 12.2769
1 8.40611 12.5812 13.4844
1 3.22444 6.71122 6.94982
1 5.69404 9.70194 0.64657
1 13.6907 5.87886 10.1663
1 9.96924 5.66594 11.1287
1 9.22085 4.75551 8.93351
1 15.682 4.96699 10.7184
1 4.12768 6.30043 2.22237
1 4.65568 7.56286 11.0611
1 12.9434 8.44542 7.94835
1 5.90186 0.949336 13.8817
1 5.48201 0.627382 1.77209
1 11.2548 11.4626 15.3737
1 7.16389 5.77924 4.13073
1 4.72145 10.8909 13.1219
1 2.08533 10.3312 2.39041
1 15.2964 11.6278 8.04978
1 9.18244 8.54732 7.35155
1 0.0346983 13.1545 0.0307885
1 5.67412 3.60408 7.25736
1 1.50355 13.4289 9.91767
1 12.7787 6.74962 13.5974
1 12.0354 6.52244 7.15077
1 8.29925 12.5439 9.15417
1 15.1162 1.03404 9.86331
1 5.37427 6.00245 0.20911
1 12.4242 3.3331 1.73108
1 13.9703 8.85871 13.3038
1 3.65982 4.01942 13.3987
1 1.36096 4.605 0.105154
1 10.9007 6.78509 15.1213
1 2.32081 2.11685 13.4107
1 1.40198 -0.0138346 6.27941
1 15.6035 1.20188 0.462993
1 14.2047 11.9534 2.49968
1 5.39704 11.839 3.91933
1 15.313 5.89837 7.13941
