216
Atoms. Timestep: 20
1 0.661132 14.9198 14.8759
1 0.712842 11.9632 13.4348
1 5.43072 12.2623 6.29879
1 8.03421 6.4657 2.04947
1 15.1275 15.7786 13.5785
1 7.80994 8.51492 13.114
1 4.06398 4.45291 3.68995
1 3.54206 0.694764 3.07397
1 13.6572 13.6095 10.6359
1 15.175 2.23941 6.03525
1 14.175 8.09379 9.87916
1 3.20191 3.16187 0.351092
1 1.47356 3.03141 8.28177
1 13.1968 16.244 3.51392
1 10.9432 15.4051 11.7363
1 12.946 8.62033 4.22885
1 1.86702 6.7135 8.89242
1 12.5017 6.56323 4.9529
1 6.07759 3.86545 10.758
1 14.9195 12.345 14.6483
1 2.78813 6.17475 10.9293
1 10.6405 6.13833 3.93287
1 3.92624 4.67899 6.04739
1 6.11521 7.24063 9.15304
1 11.0799 5.13383 2.01332
1 12.2089 13.6555 12.4947
1 10.9518 10.2312 11.2862
1 10.4158 9.64448 2.25266
1 2.26087 6.65484 0.935141
1 2.99558 2.35815 9.79623
1 3.6766 9.73527 11.2746
1 4.44 10.0591 2.67031
1 14.1001 10.0401 0.994842
1 7.54319 14.4935 10.6088
1 9.38006 8.16512 11.2899
1 10.6132 11.6308 9.22262
1 7.04323 10.767 12.5286
1 14.9864 8.27661 6.81093
1 6.96201 10.7964 10.0696
1 9.54847 10.1492 0.156615
1 4.27924 13.2902 13.3531
1 9.10793 0.505634 16.0374
1 15.6357 8.30922 0.570094
1 13.4565 3.26207 14.4566
1 12.4443 2.80088 7.58219
1 9.36411 7.98315 3.32992
1 5.7093 3.22193 14.1578
1 8.4073 15.3076 6.45316
1 14.1152 15.8132 1.38298
1 13.5082 10.5628 15.0904
1 6.53284 2.62233 1.79733
1 3.25505 0.979865 5.48085
1 10.0559 2.70829 7.73525
1 15.9722 5.49375 5.01185
1 14.3166 6.29498 0.52754
1 11.1332 13.4675 0.571986
1 0.0826084 1.33686 7.85491
1 2.40957 3.06714 6.22555
1 6.8283 4.96392 8.87787
1 12.5217 15.214 16.0224
1 12.8705 13.8207 6.55413
1 14.3365 4.54062 2.03789
1 15.3405 13.8813 1.84115
1 6.52617 0.144164 5.51361
1 9.13723 4.56436 0.990997
1 12.0366 13.581 8.80809
1 13.2324 0.662296 8.56129
1 9.8222 1.57851 3.73665
1 1.95618 10.7843 15.0088
1 4.38338 8.05869 3.76279
1 9.77566 6.28994 7.26468
1 4.93387 0.0554354 15.7888
1 0.124216 13.733 7.95072
1 4.2829 6.17153 14.3948
1 11.319 1.17661 12.7962
1 1.01535 8.19782 2.09174
1 0.773765 6.15088 12.3025
1 0.833614 2.37869 3.20451
1 11.8445 14.5655 4.44863
1 6.08941 15.3446 3.41039
1 1.32668 15.1486 11.3899
1 11.2636 0.785779 15.1902
1 11.9516 12.858 2.80914
1 7.94203 8.70252 9.40306
1 1.2818 9.57081 11.2523
1 7.79384 12.8664 6.76495
1 7.52659 12.1628 3.04237
1 8.60958 11.3831 4.93403
1 1.9005 11.921 0.656117
1 14.5589 15.3034 7.15783
1 13.321 9.73517 11.223
1 7.00096 7.64155 0.383324
1 8.94696 14.5502 0.609458
1 2.15708 10.0639 6.28133
1 9.06994 4.17005 12.8751
1 2.46821 8.02259 5.20558
1 1.36897 11.3163 4.42294
1 7.42839 13.1578 15.6571
1 0.376326 8.44318 9.50398
1 6.19584 3.74677 3.74658
1 12.1991 5.31612 11.7752
1 13.6055 14.2291 14.2255
1 11.1231 9.89106 7.59344
1 9.12708 1.80427 12.2639
1 0.314218 4.85817 14.2227
1 8.13786 14.4394 2.83551
1 1.9717 13.9168 13.2659
1 13.8891 11.7856 6.18782
1 4.60326 11.0146 9.51847
1 14.3585 5.36326 14.7116
1 13.3413 4.96096 8.08889
1 8.88724 8.1947 15.2395
1 11.7397 2.95715 15.825
1 14.9927 1.56163 14.6002
1 12.1119 1.96084 3.57057
1 9.12424 5.22261 5.29342
1 3.87622 13.3028 9.58845
1 14.7049 0.131835 5.10652
1 1.94865 14.1441 6.5408
1 15.1201 8.91485 4.67995
1 5.97696 6.89446 12.9235
1 4.11815 9.78618 15.105
1 2.68124 0.811444 11.511
1 13.173 3.02636 5.34487
1 15.3066 11.2026 4.43662
1 5.11194 14.0113 15.5156
1 9.63179 15.5024 4.39754
1 5.21972 14.3249 11.3332
1 0.160787 2.73802 13.3083
1 10.6784 11.8856 13.1203
1 12.461 8.78247 2.00313
1 4.32974 13.6763 3.2816
1 0.473651 11.696 11.2184
1 0.29371 9.78961 7.64405
1 8.12777 0.380454 13.8568
1 0.789124 14.6496 3.08496
1 15.2995 15.4231 11.2228
1 15.0508 2.82096 11.3921
1 16.1101 3.25979 1.43442
1 0.0628347 8.34446 12.9039
1 6.8429 4.66659 12.7536
1 12.106 10.4082 5.53184
1 4.92431 0.305662 11.8175
1 11.3264 15.7244 9.38337
1 13.9292 4.95525 4.27736
1 2.88972 7.68099 15.2275
1 3.58841 13.5412 1.0274
1 0.441949 5.00514 8.68542
1 4.83516 1.72755 8.44749
1 0.477666 0.231702 4.09018
1 8.21126 9.02532 5.20014
1 0.819815 8.7016 15.0149
1 0.491725 7.43994 4.15281
1 5.47168 3.75255 0.088596
1 4.12606 14.0474 7.35572
1 10.0675 4.56229 15.1
1 2.96522 2.79219 2.58715
1 10.6981 11.2526 3.92286
1 2.18425 13.4383 4.3938
1 5.14734 8.02778 7.18043
1 6.86909 2.50686 5.56461
1 7.52173 11.2628 0.788404
1 6.14194 1.57261 10.2924
1 9.42523 0.422482 8.30777
1 9.13399 2.94784 5.56575
1 8.74705 14.7219 12.559
1 4.35421 10.311 7.28371
1 8.77849 2.23121 1.54133
1 6.23662 7.73642 5.11688
1 4.73918 16.2782 6.92819
1 2.9499 1.25077 15.4192
1 0.560134 3.47378 5.06727
1 3.81226 4.14125 11.0665
1 1.28325 0.12236 0.0357075
1 2.35801 15.4825 1.71942
1 12.0987 6.83689 0.846316
1 14.6336 11.5384 10.3548
1 8.16523 0.579536 10.2651
1 12.8144 3.03639 12.2751
1 8.40516 12.5797 13.4855
1 3.22464 6.71012 6.95114
1 5.69419 9.70149 0.647044
1 13.6905 5.87977 10.1654
1 9.96648 5.6666 11.1285
1 9.22076 4.75483 8.93479
1 15.6842 4.96674 10.7195
1 4.12913 6.30025 2.22351
1 4.65707 7.56383 11.0606
1 12.9417 8.44458 7.94812
1 5.90083 0.94948 13.8799
1 5.48269 0.627935 1.76696
1 11.2558 11.4634 15.3755
1 7.16262 5.77852 4.13232
1 4.72145 10.8923 13.1203
1 2.08527 10.3301 2.39124
1 15.2968 11.6286 8.05113
1 9.18232 8.54856 7.35129
1 0.0370949 13.1558 0.0328686
1 5.67312 3.6039 7.25788
1 1.5048 13.4252 9.91564
1 12.7789 6.75006 13.5966
1 12.0348 6.52421 7.15019
1 8.30003 12.5449 9.15442
1 15.1184 1.03442 9.86624
1 5.37103 6.00411 0.208607
1 12.4251 3.33071 1.73117
1 13.971 8.85883 13.3053
1 3.65826 4.01988 13.3984
1 1.35945 4.60523 0.105768
1 10.9002 6.78523 15.1208
1 2.32167 2.11509 13.4092
1 1.40379 -0.0158958 6.28221
1 15.6028 1.20115 0.464468
1 14.2031 11.9531 2.49982
1 5.3991 11.8353 3.92067
1 15.3124 5.90024 7.1409
