216
Atoms. Timestep: 17
1 0.672986 14.9113 14.873
1 0.711699 11.9718 13.44
1 5.42925 12.2607 6.29746
1 8.03198 6.47274 2.05295
1 15.1188 15.7796 13.5835
1 7.81061 8.51336 13.1169
1 4.07108 4.44849 3.69043
1 3.54884 0.708955 3.06629
1 13.6587 13.6006 10.6371
1 15.1697 2.22264 6.02803
1 14.1659 8.09469 9.86849
1 3.19867 3.16176 0.354005
1 1.47458 3.02579 8.28285
1 13.1984 16.2489 3.5171
1 10.9487 15.4094 11.7434
1 12.9603 8.61447 4.2355
1 1.86145 6.70456 8.89364
1 12.4964 6.56444 4.94709
1 6.07648 3.86723 10.7595
1 14.9318 12.3511 14.6559
1 2.79228 6.16955 10.9276
1 10.6367 6.1368 3.93221
1 3.9153 4.67098 6.04621
1 6.11567 7.24371 9.14824
1 11.0818 5.13025 2.01866
1 12.2097 13.6623 12.494
1 10.9553 10.2309 11.288
1 10.4222 9.63488 2.25257
1 2.26199 6.6581 0.940328
1 2.99147 2.35719 9.79357
1 3.67674 9.73718 11.2721
1 4.44076 10.0512 2.67773
1 14.0994 10.0361 0.991826
1 7.54964 14.4965 10.6209
1 9.37809 8.16579 11.2908
1 10.6142 11.6313 9.22066
1 7.04172 10.7679 12.5312
1 14.9825 8.28437 6.81858
1 6.96472 10.7975 10.0661
1 9.55117 10.1478 0.158696
1 4.27753 13.2919 13.3518
1 9.11124 0.505414 16.0321
1 15.6426 8.3119 0.579397
1 13.4585 3.25494 14.4593
1 12.4527 2.80616 7.56982
1 9.36468 7.97149 3.32431
1 5.70645 3.2255 14.157
1 8.40676 15.3098 6.44761
1 14.1143 15.812 1.38536
1 13.5121 10.5657 15.0956
1 6.5335 2.61813 1.79751
1 3.2439 0.972304 5.48471
1 10.0552 2.70896 7.73389
1 15.9696 5.48537 5.0134
1 14.3143 6.28942 0.527179
1 11.1349 13.4705 0.571658
1 0.0814377 1.34197 7.84585
1 2.40975 3.07238 6.22569
1 6.82555 4.96004 8.88014
1 12.5236 15.2127 16.0193
1 12.8751 13.8176 6.5566
1 14.3353 4.53873 2.03601
1 15.3494 13.8767 1.83364
1 6.51912 0.144009 5.52051
1 9.14546 4.56756 0.987518
1 12.0354 13.5894 8.80882
1 13.2487 0.66316 8.57181
1 9.82727 1.58217 3.73998
1 1.96343 10.7728 15.0152
1 4.38907 8.06512 3.75802
1 9.77913 6.29151 7.26568
1 4.93411 0.0573032 15.7821
1 0.131503 13.7346 7.94714
1 4.27257 6.18139 14.3984
1 11.3158 1.17441 12.7869
1 1.0065 8.18927 2.09186
1 0.7742 6.14722 12.3081
1 0.840963 2.38658 3.21164
1 11.8442 14.5658 4.44805
1 6.0811 15.356 3.39738
1 1.32711 15.1406 11.3798
1 11.264 0.792582 15.1958
1 11.9463 12.8531 2.81553
1 7.93957 8.7011 9.40012
1 1.27536 9.57841 11.25
1 7.79431 12.8629 6.7654
1 7.52833 12.1615 3.04819
1 8.61574 11.3836 4.9265
1 1.89808 11.9168 0.648895
1 14.5566 15.3045 7.15236
1 13.3247 9.72924 11.2203
1 6.99893 7.62623 0.390462
1 8.94437 14.55 0.61232
1 2.1553 10.0627 6.28143
1 9.05748 4.17132 12.8758
1 2.46684 8.01905 5.21274
1 1.36882 11.3215 4.42453
1 7.43019 13.1555 15.6597
1 0.375736 8.45609 9.48548
1 6.19093 3.75129 3.7468
1 12.1997 5.31919 11.7668
1 13.608 14.2336 14.2221
1 11.134 9.88836 7.58581
1 9.13307 1.79838 12.2677
1 0.313484 4.86168 14.2184
1 8.13518 14.4396 2.83452
1 1.96093 13.9174 13.2773
1 13.8919 11.7868 6.18727
1 4.59949 11.0098 9.51605
1 14.3588 5.36252 14.7135
1 13.3373 4.9673 8.08767
1 8.8872 8.19561 15.2387
1 11.7499 2.9519 15.8196
1 14.9934 1.56696 14.5954
1 12.1139 1.95874 3.56972
1 9.13164 5.22627 5.28517
1 3.87654 13.3047 9.5859
1 14.738 0.142969 5.10575
1 1.9422 14.1474 6.53693
1 15.1095 8.90747 4.68283
1 5.9732 6.89216 12.926
1 4.10422 9.78889 15.1013
1 2.68404 0.812909 11.5084
1 13.1846 3.0175 5.35495
1 15.3044 11.2022 4.44158
1 5.10959 14.0158 15.5171
1 9.63247 15.4985 4.39952
1 5.21892 14.3287 11.3338
1 0.1572 2.73197 13.3139
1 10.6773 11.8849 13.1264
1 12.4511 8.78489 2.00256
1 4.32851 13.6672 3.27516
1 0.475155 11.6873 11.2282
1 0.291343 9.77858 7.65591
1 8.12283 0.384312 13.8572
1 0.794272 14.6574 3.08608
1 15.3032 15.4267 11.2225
1 15.0533 2.82121 11.3911
1 16.1062 3.2564 1.44387
1 0.0692069 8.34563 12.9111
1 6.84638 4.65949 12.7523
1 12.1019 10.4081 5.53958
1 4.92095 0.303506 11.8158
1 11.3262 15.7173 9.37882
1 13.9383 4.9599 4.28243
1 2.88634 7.68648 15.2172
1 3.58915 13.5446 1.03627
1 0.447425 5.01162 8.68306
1 4.84062 1.72172 8.45715
1 0.456143 0.23137 4.10944
1 8.20363 9.02379 5.20133
1 0.83551 8.6989 15.0091
1 0.489885 7.44172 4.14851
1 5.47195 3.76232 0.0878357
1 4.12466 14.052 7.35642
1 10.0644 4.56376 15.1073
1 2.96311 2.77835 2.59199
1 10.6961 11.2573 3.92579
1 2.18003 13.4423 4.39504
1 5.14923 8.0244 7.1791
1 6.8711 2.51137 5.56322
1 7.52022 11.2646 0.786725
1 6.14216 1.57095 10.281
1 9.42427 0.423292 8.31703
1 9.13019 2.95072 5.56484
1 8.7382 14.716 12.5513
1 4.35409 10.3133 7.28686
1 8.76762 2.23501 1.54085
1 6.23852 7.73893 5.11612
1 4.74211 16.281 6.92536
1 2.94075 1.24549 15.4221
1 0.557967 3.47719 5.05468
1 3.81221 4.14905 11.0659
1 1.29151 0.119421 0.0311199
1 2.35167 15.4771 1.72298
1 12.0999 6.84039 0.847589
1 14.6339 11.5443 10.3558
1 8.15665 0.583932 10.2589
1 12.8134 3.0335 12.2808
1 8.40825 12.5845 13.4818
1 3.22399 6.71381 6.94676
1 5.69378 9.70301 0.645528
1 13.6912 5.87672 10.1684
1 9.97549 5.66447 11.1293
1 9.22103 4.75704 8.93065
1 15.6769 4.96752 10.716
1 4.12436 6.30085 2.21981
1 4.65257 7.56066 11.0622
1 12.9475 8.44741 7.94895
1 5.90422 0.948925 13.8858
1 5.48046 0.625987 1.78386
1 11.2526 11.461 15.3695
1 7.16683 5.78091 4.12711
1 4.72146 10.8877 13.1254
1 2.08549 10.3339 2.38854
1 15.2952 11.6261 8.04671
1 9.18269 8.54451 7.35214
1 0.0291532 13.1516 0.0259416
1 5.67641 3.60451 7.25618
1 1.50073 13.4375 9.92236
1 12.7782 6.74865 13.5993
1 12.0369 6.51831 7.15216
1 8.29748 12.5418 9.1536
1 15.1108 1.03311 9.85662
1 5.38179 5.99866 0.210308
1 12.4224 3.33854 1.73088
1 13.9687 8.85845 13.3004
1 3.66332 4.0183 13.3994
1 1.36438 4.60443 0.103756
1 10.9019 6.78478 15.1223
1 2.31886 2.12082 13.4142
1 1.39758 -0.00897656 6.27289
1 15.6048 1.20355 0.459723
1 14.2081 11.9541 2.49936
1 5.39235 11.8473 3.91629
1 15.3143 5.89411 7.13596
