216
Atoms. Timestep: 0
1 1.80955 15.8646 14.0724
1 1.42811 11.6212 14.2463
1 1.45921 11.0526 8.41032
1 5.78228 5.36609 4.94756
1 15.7485 16.213 13.9038
1 7.84151 8.23572 12.9639
1 3.08523 7.83074 3.32727
1 12.4152 1.78409 2.70537
1 12.9613 15.1009 11.8616
1 10.4913 8.75812 4.41383
1 3.09919 2.80935 2.67866
1 6.87793 3.42761 4.30027
1 4.12907 2.28187 6.5456
1 10.0148 8.12216 0.665842
1 11.2429 16.2765 13.0049
1 13.208 9.93231 0.29629
1 1.667 2.5229 7.2611
1 10.0823 1.46145 3.50679
1 4.86876 4.00139 10.6391
1 1.88438 10.2575 12.2736
1 2.43504 6.8038 10.9278
1 0.275977 5.61722 2.5863
1 4.27118 4.79396 6.70801
1 5.5289 7.58265 9.01744
1 13.2198 3.41029 1.10749
1 13.8131 11.2671 12.5264
1 12.3241 6.96455 7.09145
1 8.32879 10.2953 7.86632
1 15.4394 4.3725 0.885741
1 14.5036 3.82477 11.6282
1 4.16173 10.2247 11.5352
1 1.21476 7.39546 4.8265
1 11.9046 12.1935 3.42009
1 8.46073 15.3813 9.6451
1 8.92615 7.75518 10.9025
1 7.87191 14.2516 11.6282
1 8.4327 12.005 11.2898
1 15.6779 8.87946 6.20395
1 7.2018 11.7881 9.31378
1 7.72729 10.6165 13.2087
1 4.76862 13.3109 13.6636
1 8.84922 3.95212 0.0711359
1 14.1648 12.2915 0.0892263
1 12.92 2.76904 15.1873
1 14.5955 5.8998 10.5101
1 12.8634 9.48938 7.88477
1 5.41491 3.50501 14.5047
1 7.97074 13.6558 8.05594
1 12.8105 15.5062 0.0918587
1 4.6045 9.84347 15.307
1 6.57699 2.0914 6.22575
1 15.6743 14.4045 8.37093
1 8.20462 2.6313 7.911
1 1.06333 8.01409 12.4212
1 13.3401 14.1606 3.68975
1 11.2944 9.43041 15.0929
1 1.02573 3.11924 9.52407
1 0.318302 0.959287 6.0251
1 5.52339 5.23744 8.71833
1 9.43747 1.68349 15.8507
1 12.9667 14.9576 5.8909
1 1.15048 3.79754 3.78671
1 13.8259 8.70648 2.486
1 6.95394 16.235 5.45099
1 9.65745 4.89843 2.16719
1 11.993 13.9118 10.0812
1 13.8687 1.52376 8.50369
1 9.81597 12.7751 6.61764
1 2.49535 10.6033 16.0773
1 0.827801 9.99179 4.17477
1 10.5715 2.31945 7.47427
1 5.24358 0.0494133 16.0394
1 15.9583 9.86596 2.10079
1 2.96608 6.14824 15.5796
1 11.0608 1.8135 11.5012
1 4.88301 6.35878 3.02771
1 0.88949 7.16029 14.6694
1 3.67421 1.11125 4.40953
1 6.1157 10.9124 0.44927
1 5.53725 16.0525 3.59769
1 15.5611 13.3968 3.49469
1 11.6057 0.886796 15.1777
1 11.7526 4.52508 7.74111
1 7.80186 8.17773 8.8479
1 0.938431 11.6124 10.6078
1 10.6776 15.4337 8.8904
1 2.74397 12.2354 1.56548
1 2.8664 11.176 3.75484
1 5.08071 12.8396 1.29842
1 14.7527 16.1206 7.088
1 11.5811 10.5001 11.9465
1 4.61661 9.6038 3.64792
1 8.81919 0.617212 1.54185
1 1.41447 4.53723 6.00361
1 8.37241 4.35288 12.3962
1 3.67599 10.7538 7.72145
1 3.69708 12.1462 5.75169
1 6.43664 0.76102 1.68051
1 0.253575 9.0571 8.32717
1 2.69006 6.78618 6.75492
1 13.7229 3.38469 7.04599
1 14.5053 14.4915 15.0841
1 10.816 11.0219 8.16841
1 8.77193 2.1063 11.8702
1 13.7349 8.67699 13.2414
1 8.51544 14.0639 3.25265
1 2.44843 13.6585 13.3758
1 13.8691 13.0474 8.98231
1 4.8386 11.5326 9.63738
1 11.277 7.50314 13.5618
1 8.60102 6.73309 6.98045
1 11.2028 8.24168 11.2837
1 11.9392 4.68401 14.0829
1 15.1629 2.00845 14.813
1 13.4878 16.0656 2.23616
1 11.951 5.16428 1.87347
1 4.11959 13.7258 10.0741
1 13.5154 2.87611 4.68045
1 0.705255 12.8913 7.12015
1 1.9275 6.94658 1.4714
1 5.76642 7.07539 12.872
1 8.13033 11.4723 15.632
1 2.59863 1.07482 12.3937
1 13.053 5.14648 3.91792
1 1.49241 7.11247 8.77871
1 5.69763 14.0988 15.6858
1 12.5492 9.98517 4.04752
1 5.50622 14.565 11.8259
1 15.9297 3.75791 13.5063
1 15.0832 9.08448 15.2573
1 15.7439 2.16916 4.19891
1 8.71966 10.2675 3.59717
1 0.496301 15.2999 10.248
1 14.6308 9.29857 9.62606
1 8.27225 0.946483 13.9017
1 2.3392 2.2652 0.450374
1 15.0913 16.2235 11.6348
1 15.2638 2.00633 10.3418
1 15.5201 5.49783 15.0633
1 15.1711 7.92517 11.5536
1 6.0546 4.74094 12.5843
1 15.5245 4.93662 6.92952
1 4.89536 0.539655 12.209
1 11.622 1.21819 9.26693
1 13.3501 6.55681 15.0195
1 4.86547 7.48542 15.0048
1 2.0255 14.5545 1.20988
1 10.2899 8.55991 6.80475
1 3.87354 0.897551 8.60179
1 2.59418 14.1269 6.43193
1 14.5062 6.86047 6.08624
1 4.02609 4.88313 1.4582
1 0.00304385 2.19571 0.588892
1 9.83922 4.77508 6.09477
1 6.20832 14.4919 6.83428
1 9.56849 5.02245 14.3706
1 5.82685 2.92817 2.23879
1 7.38958 10.8168 5.70709
1 16.0918 12.2049 1.53168
1 5.92369 8.96902 5.50458
1 9.03294 7.12069 2.8802
1 10.9344 13.3633 14.2081
1 5.39202 1.71399 10.2452
1 10.6029 15.0406 6.55072
1 11.7024 1.20324 5.64005
1 9.06713 14.9596 13.5217
1 5.91434 12.6877 5.36841
1 9.18988 3.59758 4.06511
1 6.1442 13.7481 3.27192
1 4.18783 14.9209 8.02823
1 2.8973 0.0612468 16.1507
1 0.0268531 5.31987 9.04695
1 2.54647 4.39134 11.0011
1 0.722092 15.2136 3.03871
1 9.13734 15.8458 4.72057
1 12.3641 7.21648 0.873232
1 15.3358 11.3014 14.4523
1 7.69279 1.36778 9.8578
1 12.2028 3.84126 11.8898
1 10.664 11.9349 10.3748
1 4.35805 8.53275 7.21708
1 8.01929 13.8538 15.5023
1 10.2541 11.1333 13.8134
1 9.07418 5.46877 10.4674
1 7.85868 4.90422 8.50618
1 12.6204 7.08258 9.68926
1 13.8455 10.6517 5.92438
1 4.50313 7.93752 11.0958
1 12.6916 12.6085 6.95742
1 5.96137 1.24988 14.171
1 8.85348 7.23411 14.9403
1 11.2344 13.7836 0.20028
1 0.977281 8.87611 0.361512
1 5.34045 11.0234 13.402
1 14.7968 6.7954 3.69363
1 15.9203 11.8779 5.26223
1 11.5578 11.6903 1.20381
1 0.598745 13.745 15.7326
1 9.20731 14.6315 1.08523
1 1.96247 13.652 11.0639
1 13.1728 13.4352 13.4288
1 11.3561 5.09293 10.0565
1 9.70089 12.3498 4.26513
1 1.9517 0.89131 10.0994
1 6.77297 6.64356 16.1114
1 11.1564 6.2338 4.80687
1 14.8688 11.4669 10.4598
1 3.12289 3.78219 14.998
1 6.47257 4.2833 0.168613
1 6.76612 7.42917 2.0179
1 1.94487 3.30321 13.0153
1 6.61724 9.71278 2.35388
1 15.6454 0.71841 2.3592
1 7.36041 7.12654 5.03685
1 9.48021 10.4704 1.1384
1 1.9208 15.8857 4.95352
216
Atoms. Timestep: 1
1 1.80955 15.8646 14.0724
1 1.42811 11.6212 14.2463
1 1.45921 11.0526 8.41031
1 5.78228 5.36608 4.94756
1 15.7485 16.213 13.9038
1 7.8415 8.23572 12.9639
1 3.08524 7.83074 3.32727
1 12.4152 1.78409 2.70538
1 12.9613 15.1009 11.8616
1 10.4913 8.75811 4.41384
1 3.09919 2.80935 2.67867
1 6.87793 3.42761 4.30027
1 4.12907 2.28187 6.5456
1 10.0148 8.12216 0.665839
1 11.2429 16.2765 13.0049
1 13.208 9.9323 0.296291
1 1.667 2.5229 7.26109
1 10.0823 1.46145 3.50679
1 4.86876 4.00139 10.6391
1 1.88438 10.2575 12.2736
1 2.43504 6.8038 10.9278
1 0.275978 5.61723 2.58629
1 4.27118 4.79396 6.70801
1 5.5289 7.58264 9.01744
1 13.2198 3.41029 1.10748
1 13.8131 11.2671 12.5264
1 12.3241 6.96455 7.09145
1 8.3288 10.2953 7.86632
1 15.4394 4.3725 0.885748
1 14.5036 3.82477 11.6282
1 4.16172 10.2247 11.5352
1 1.21476 7.39546 4.8265
1 11.9046 12.1935 3.42009
1 8.46072 15.3813 9.6451
1 8.92616 7.75517 10.9025
1 7.87191 14.2516 11.6282
1 8.4327 12.005 11.2898
1 15.6779 8.87946 6.20395
1 7.2018 11.7881 9.31378
1 7.72729 10.6165 13.2087
1 4.76862 13.3109 13.6636
1 8.84922 3.95212 0.0711331
1 14.1648 12.2915 0.0892235
1 12.92 2.76904 15.1873
1 14.5955 5.89979 10.5101
1 12.8634 9.48937 7.88478
1 5.41491 3.505 14.5047
1 7.97074 13.6558 8.05594
1 12.8105 15.5062 0.0918511
1 4.60449 9.84347 15.307
1 6.57699 2.09141 6.22575
1 15.6743 14.4045 8.37092
1 8.20462 2.6313 7.911
1 1.06333 8.01409 12.4212
1 13.3401 14.1606 3.68975
1 11.2944 9.4304 15.0929
1 1.02573 3.11924 9.52408
1 0.318291 0.959286 6.0251
1 5.5234 5.23745 8.71833
1 9.43747 1.68349 15.8507
1 12.9667 14.9576 5.8909
1 1.15049 3.79753 3.78671
1 13.8259 8.70648 2.486
1 6.95393 16.235 5.45099
1 9.65744 4.89843 2.1672
1 11.993 13.9118 10.0812
1 13.8687 1.52376 8.50368
1 9.81597 12.7751 6.61764
1 2.49536 10.6033 16.0773
1 0.827797 9.99179 4.17477
1 10.5715 2.31945 7.47427
1 5.24359 0.0493985 16.0394
1 15.9583 9.86596 2.10079
1 2.96608 6.14824 15.5796
1 11.0608 1.8135 11.5012
1 4.88301 6.35879 3.02771
1 0.88949 7.16029 14.6694
1 3.67421 1.11126 4.40953
1 6.11571 10.9124 0.449272
1 5.53726 16.0525 3.59769
1 15.5611 13.3968 3.49468
1 11.6057 0.886792 15.1777
1 11.7526 4.52509 7.74111
1 7.80186 8.17773 8.8479
1 0.93843 11.6124 10.6078
1 10.6776 15.4337 8.8904
1 2.74397 12.2354 1.56548
1 2.8664 11.176 3.75484
1 5.08071 12.8396 1.29842
1 14.7527 16.1206 7.088
1 11.5811 10.5001 11.9465
1 4.61661 9.6038 3.64792
1 8.8192 0.617206 1.54185
1 1.41447 4.53723 6.00361
1 8.37241 4.35287 12.3962
1 3.67599 10.7538 7.72144
1 3.69708 12.1462 5.7517
1 6.43663 0.76102 1.68051
1 0.25358 9.05711 8.32717
1 2.69006 6.78618 6.75492
1 13.7229 3.38468 7.04599
1 14.5053 14.4915 15.0841
1 10.816 11.0219 8.16841
1 8.77193 2.1063 11.8702
1 13.7349 8.67699 13.2414
1 8.51544 14.0639 3.25265
1 2.44843 13.6585 13.3758
1 13.8691 13.0474 8.98231
1 4.8386 11.5326 9.63738
1 11.277 7.50314 13.5618
1 8.60102 6.73309 6.98044
1 11.2028 8.24167 11.2837
1 11.9392 4.68401 14.0829
1 15.1629 2.00844 14.813
1 13.4878 16.0656 2.23616
1 11.951 5.16428 1.87346
1 4.11959 13.7258 10.0741
1 13.5154 2.87611 4.68045
1 0.705266 12.8913 7.12016
1 1.92749 6.94658 1.47141
1 5.76643 7.0754 12.872
1 8.13032 11.4723 15.632
1 2.59863 1.07482 12.3937
1 13.053 5.14647 3.91792
1 1.49241 7.11246 8.77871
1 5.69762 14.0988 15.6858
1 12.5492 9.98517 4.04752
1 5.50623 14.565 11.8259
1 15.9297 3.75791 13.5063
1 15.0832 9.08448 15.2573
1 15.7439 2.16916 4.19891
1 8.71967 10.2675 3.59717
1 0.4963 15.2999 10.248
1 14.6308 9.29858 9.62606
1 8.27226 0.946481 13.9017
1 2.3392 2.26519 0.450373
1 15.0913 16.2235 11.6348
1 15.2638 2.00633 10.3418
1 15.5201 5.49783 15.0633
1 15.1711 7.92518 11.5536
1 6.0546 4.74094 12.5843
1 15.5245 4.93663 6.92952
1 4.89536 0.539656 12.209
1 11.622 1.21819 9.26694
1 13.3501 6.55681 15.0195
1 4.86546 7.48542 15.0048
1 2.0255 14.5545 1.20988
1 10.2899 8.55991 6.80474
1 3.87354 0.897555 8.60179
1 2.59418 14.1269 6.43193
1 14.5062 6.86047 6.08625
1 4.02609 4.88313 1.45819
1 0.00304639 2.19571 0.588889
1 9.83922 4.77508 6.09477
1 6.20832 14.4919 6.83427
1 9.56849 5.02246 14.3706
1 5.82685 2.92817 2.23879
1 7.38958 10.8168 5.70709
1 16.0918 12.2049 1.53168
1 5.92368 8.96902 5.50458
1 9.03295 7.12068 2.8802
1 10.9344 13.3633 14.2081
1 5.39202 1.714 10.2452
1 10.6029 15.0406 6.55071
1 11.7024 1.20324 5.64004
1 9.06713 14.9596 13.5217
1 5.91434 12.6877 5.36841
1 9.18988 3.59759 4.06511
1 6.14419 13.7481 3.27192
1 4.18783 14.9209 8.02823
1 2.8973 0.0612548 16.1507
1 0.0268502 5.31987 9.04695
1 2.54646 4.39135 11.0011
1 0.722096 15.2136 3.03872
1 9.13735 15.8458 4.72058
1 12.3641 7.21648 0.873232
1 15.3358 11.3014 14.4523
1 7.69279 1.36777 9.8578
1 12.2028 3.84126 11.8898
1 10.664 11.9349 10.3748
1 4.35805 8.53276 7.21708
1 8.0193 13.8538 15.5023
1 10.2541 11.1333 13.8134
1 9.07418 5.46878 10.4674
1 7.85867 4.90423 8.50618
1 12.6204 7.08258 9.68926
1 13.8455 10.6517 5.92437
1 4.50313 7.93752 11.0958
1 12.6916 12.6085 6.95742
1 5.96137 1.24989 14.171
1 8.85348 7.23411 14.9403
1 11.2344 13.7836 0.200282
1 0.977278 8.8761 0.361512
1 5.34045 11.0234 13.402
1 14.7968 6.79541 3.69362
1 15.9203 11.8779 5.26223
1 11.5578 11.6903 1.20381
1 0.598747 13.745 15.7326
1 9.20732 14.6315 1.08522
1 1.96247 13.652 11.0639
1 13.1728 13.4352 13.4288
1 11.3561 5.09293 10.0565
1 9.7009 12.3498 4.26513
1 1.9517 0.891311 10.0994
1 6.77298 6.64356 16.1114
1 11.1564 6.23382 4.80688
1 14.8688 11.4669 10.4598
1 3.12289 3.78219 14.998
1 6.47257 4.2833 0.168615
1 6.76612 7.42917 2.0179
1 1.94486 3.30321 13.0153
1 6.61723 9.71278 2.35388
1 15.6454 0.718412 2.3592
1 7.36042 7.12654 5.03686
1 9.48021 10.4704 1.1384
1 1.9208 15.8857 4.95352
