
21952 atoms
2 atom types	

0.0 76.02 xlo xhi
0.0 76.02 ylo yhi
0.0 76.02 zlo zhi

Masses

1 28.0855
2 28.0855

Atoms				

1	1	0	0	0
2	1	2.715	2.715	0
3	1	1.3575	1.3575	1.3575
4	2	4.0725	4.0725	1.3575
5	1	2.715	0	2.715
6	1	0	2.715	2.715
7	1	4.0725	1.3575	4.0725
8	1	1.3575	4.0725	4.0725
9	1	0	0	5.43
10	1	2.715	2.715	5.43
11	1	1.3575	1.3575	6.7875
12	1	4.0725	4.0725	6.7875
13	2	2.715	0	8.145
14	1	0	2.715	8.145
15	1	4.0725	1.3575	9.5025
16	1	1.3575	4.0725	9.5025
17	1	0	0	10.86
18	1	2.715	2.715	10.86
19	1	1.3575	1.3575	12.217
20	1	4.0725	4.0725	12.217
21	1	2.715	0	13.575
22	1	0	2.715	13.575
23	1	4.0725	1.3575	14.932
24	1	1.3575	4.0725	14.932
25	1	0	0	16.29
26	1	2.715	2.715	16.29
27	1	1.3575	1.3575	17.648
28	1	4.0725	4.0725	17.648
29	1	2.715	0	19.005
30	1	0	2.715	19.005
31	1	4.0725	1.3575	20.362
32	1	1.3575	4.0725	20.362
33	1	0	0	21.72
34	1	2.715	2.715	21.72
35	1	1.3575	1.3575	23.078
36	1	4.0725	4.0725	23.078
37	1	2.715	0	24.435
38	1	0	2.715	24.435
39	1	4.0725	1.3575	25.792
40	1	1.3575	4.0725	25.792
41	1	0	0	27.15
42	1	2.715	2.715	27.15
43	1	1.3575	1.3575	28.508
44	1	4.0725	4.0725	28.508
45	1	2.715	0	29.865
46	1	0	2.715	29.865
47	1	4.0725	1.3575	31.222
48	1	1.3575	4.0725	31.222
49	1	0	0	32.58
50	1	2.715	2.715	32.58
51	1	1.3575	1.3575	33.938
52	1	4.0725	4.0725	33.938
53	1	2.715	0	35.295
54	1	0	2.715	35.295
55	1	4.0725	1.3575	36.652
56	1	1.3575	4.0725	36.652
57	1	0	0	38.01
58	1	2.715	2.715	38.01
59	1	1.3575	1.3575	39.367
60	1	4.0725	4.0725	39.367
61	1	2.715	0	40.725
62	1	0	2.715	40.725
63	1	4.0725	1.3575	42.082
64	1	1.3575	4.0725	42.082
65	1	0	0	43.44
66	1	2.715	2.715	43.44
67	1	1.3575	1.3575	44.797
68	1	4.0725	4.0725	44.797
69	1	2.715	0	46.155
70	1	0	2.715	46.155
71	1	4.0725	1.3575	47.512
72	1	1.3575	4.0725	47.512
73	1	0	0	48.87
74	1	2.715	2.715	48.87
75	2	1.3575	1.3575	50.227
76	1	4.0725	4.0725	50.227
77	1	2.715	0	51.585
78	1	0	2.715	51.585
79	2	4.0725	1.3575	52.942
80	2	1.3575	4.0725	52.942
81	1	0	0	54.3
82	1	2.715	2.715	54.3
83	1	1.3575	1.3575	55.657
84	1	4.0725	4.0725	55.657
85	1	2.715	0	57.015
86	1	0	2.715	57.015
87	1	4.0725	1.3575	58.372
88	1	1.3575	4.0725	58.372
89	1	0	0	59.73
90	1	2.715	2.715	59.73
91	1	1.3575	1.3575	61.087
92	1	4.0725	4.0725	61.087
93	1	2.715	0	62.445
94	2	0	2.715	62.445
95	1	4.0725	1.3575	63.802
96	1	1.3575	4.0725	63.802
97	1	0	0	65.16
98	1	2.715	2.715	65.16
99	1	1.3575	1.3575	66.517
100	1	4.0725	4.0725	66.517
101	1	2.715	0	67.875
102	1	0	2.715	67.875
103	1	4.0725	1.3575	69.233
104	1	1.3575	4.0725	69.233
105	1	0	0	70.59
106	1	2.715	2.715	70.59
107	1	1.3575	1.3575	71.948
108	1	4.0725	4.0725	71.948
109	1	2.715	0	73.305
110	1	0	2.715	73.305
111	1	4.0725	1.3575	74.663
112	1	1.3575	4.0725	74.663
113	1	0	5.43	0
114	1	2.715	8.145	0
115	1	1.3575	6.7875	1.3575
116	1	4.0725	9.5025	1.3575
117	1	2.715	5.43	2.715
118	1	0	8.145	2.715
119	1	4.0725	6.7875	4.0725
120	1	1.3575	9.5025	4.0725
121	1	0	5.43	5.43
122	1	2.715	8.145	5.43
123	1	1.3575	6.7875	6.7875
124	1	4.0725	9.5025	6.7875
125	1	2.715	5.43	8.145
126	1	0	8.145	8.145
127	1	4.0725	6.7875	9.5025
128	2	1.3575	9.5025	9.5025
129	1	0	5.43	10.86
130	1	2.715	8.145	10.86
131	1	1.3575	6.7875	12.217
132	1	4.0725	9.5025	12.217
133	1	2.715	5.43	13.575
134	1	0	8.145	13.575
135	1	4.0725	6.7875	14.932
136	1	1.3575	9.5025	14.932
137	1	0	5.43	16.29
138	1	2.715	8.145	16.29
139	1	1.3575	6.7875	17.648
140	1	4.0725	9.5025	17.648
141	1	2.715	5.43	19.005
142	1	0	8.145	19.005
143	1	4.0725	6.7875	20.362
144	1	1.3575	9.5025	20.362
145	1	0	5.43	21.72
146	1	2.715	8.145	21.72
147	1	1.3575	6.7875	23.078
148	1	4.0725	9.5025	23.078
149	1	2.715	5.43	24.435
150	1	0	8.145	24.435
151	1	4.0725	6.7875	25.792
152	1	1.3575	9.5025	25.792
153	1	0	5.43	27.15
154	1	2.715	8.145	27.15
155	1	1.3575	6.7875	28.508
156	1	4.0725	9.5025	28.508
157	1	2.715	5.43	29.865
158	1	0	8.145	29.865
159	1	4.0725	6.7875	31.222
160	1	1.3575	9.5025	31.222
161	1	0	5.43	32.58
162	1	2.715	8.145	32.58
163	1	1.3575	6.7875	33.938
164	1	4.0725	9.5025	33.938
165	1	2.715	5.43	35.295
166	1	0	8.145	35.295
167	1	4.0725	6.7875	36.652
168	1	1.3575	9.5025	36.652
169	1	0	5.43	38.01
170	1	2.715	8.145	38.01
171	1	1.3575	6.7875	39.367
172	1	4.0725	9.5025	39.367
173	1	2.715	5.43	40.725
174	1	0	8.145	40.725
175	1	4.0725	6.7875	42.082
176	1	1.3575	9.5025	42.082
177	1	0	5.43	43.44
178	1	2.715	8.145	43.44
179	1	1.3575	6.7875	44.797
180	1	4.0725	9.5025	44.797
181	1	2.715	5.43	46.155
182	1	0	8.145	46.155
183	1	4.0725	6.7875	47.512
184	1	1.3575	9.5025	47.512
185	1	0	5.43	48.87
186	1	2.715	8.145	48.87
187	1	1.3575	6.7875	50.227
188	2	4.0725	9.5025	50.227
189	1	2.715	5.43	51.585
190	1	0	8.145	51.585
191	1	4.0725	6.7875	52.942
192	1	1.3575	9.5025	52.942
193	1	0	5.43	54.3
194	1	2.715	8.145	54.3
195	1	1.3575	6.7875	55.657
196	1	4.0725	9.5025	55.657
197	1	2.715	5.43	57.015
198	1	0	8.145	57.015
199	1	4.0725	6.7875	58.372
200	1	1.3575	9.5025	58.372
201	1	0	5.43	59.73
202	1	2.715	8.145	59.73
203	1	1.3575	6.7875	61.087
204	1	4.0725	9.5025	61.087
205	1	2.715	5.43	62.445
206	1	0	8.145	62.445
207	1	4.0725	6.7875	63.802
208	1	1.3575	9.5025	63.802
209	2	0	5.43	65.16
210	1	2.715	8.145	65.16
211	1	1.3575	6.7875	66.517
212	1	4.0725	9.5025	66.517
213	1	2.715	5.43	67.875
214	1	0	8.145	67.875
215	1	4.0725	6.7875	69.233
216	2	1.3575	9.5025	69.233
217	1	0	5.43	70.59
218	1	2.715	8.145	70.59
219	1	1.3575	6.7875	71.948
220	1	4.0725	9.5025	71.948
221	1	2.715	5.43	73.305
222	1	0	8.145	73.305
223	1	4.0725	6.7875	74.663
224	1	1.3575	9.5025	74.663
225	1	0	10.86	0
226	1	2.715	13.575	0
227	1	1.3575	12.217	1.3575
228	1	4.0725	14.932	1.3575
229	1	2.715	10.86	2.715
230	1	0	13.575	2.715
231	1	4.0725	12.217	4.0725
232	1	1.3575	14.932	4.0725
233	1	0	10.86	5.43
234	1	2.715	13.575	5.43
235	1	1.3575	12.217	6.7875
236	1	4.0725	14.932	6.7875
237	1	2.715	10.86	8.145
238	1	0	13.575	8.145
239	1	4.0725	12.217	9.5025
240	1	1.3575	14.932	9.5025
241	2	0	10.86	10.86
242	1	2.715	13.575	10.86
243	1	1.3575	12.217	12.217
244	1	4.0725	14.932	12.217
245	1	2.715	10.86	13.575
246	1	0	13.575	13.575
247	1	4.0725	12.217	14.932
248	1	1.3575	14.932	14.932
249	1	0	10.86	16.29
250	2	2.715	13.575	16.29
251	1	1.3575	12.217	17.648
252	1	4.0725	14.932	17.648
253	1	2.715	10.86	19.005
254	1	0	13.575	19.005
255	1	4.0725	12.217	20.362
256	1	1.3575	14.932	20.362
257	1	0	10.86	21.72
258	1	2.715	13.575	21.72
259	1	1.3575	12.217	23.078
260	1	4.0725	14.932	23.078
261	1	2.715	10.86	24.435
262	1	0	13.575	24.435
263	1	4.0725	12.217	25.792
264	1	1.3575	14.932	25.792
265	1	0	10.86	27.15
266	1	2.715	13.575	27.15
267	1	1.3575	12.217	28.508
268	1	4.0725	14.932	28.508
269	1	2.715	10.86	29.865
270	1	0	13.575	29.865
271	1	4.0725	12.217	31.222
272	1	1.3575	14.932	31.222
273	1	0	10.86	32.58
274	1	2.715	13.575	32.58
275	1	1.3575	12.217	33.938
276	1	4.0725	14.932	33.938
277	1	2.715	10.86	35.295
278	1	0	13.575	35.295
279	1	4.0725	12.217	36.652
280	1	1.3575	14.932	36.652
281	1	0	10.86	38.01
282	1	2.715	13.575	38.01
283	1	1.3575	12.217	39.367
284	1	4.0725	14.932	39.367
285	1	2.715	10.86	40.725
286	1	0	13.575	40.725
287	1	4.0725	12.217	42.082
288	1	1.3575	14.932	42.082
289	2	0	10.86	43.44
290	1	2.715	13.575	43.44
291	2	1.3575	12.217	44.797
292	1	4.0725	14.932	44.797
293	1	2.715	10.86	46.155
294	1	0	13.575	46.155
295	1	4.0725	12.217	47.512
296	1	1.3575	14.932	47.512
297	1	0	10.86	48.87
298	1	2.715	13.575	48.87
299	1	1.3575	12.217	50.227
300	1	4.0725	14.932	50.227
301	2	2.715	10.86	51.585
302	1	0	13.575	51.585
303	1	4.0725	12.217	52.942
304	1	1.3575	14.932	52.942
305	1	0	10.86	54.3
306	1	2.715	13.575	54.3
307	1	1.3575	12.217	55.657
308	1	4.0725	14.932	55.657
309	1	2.715	10.86	57.015
310	1	0	13.575	57.015
311	1	4.0725	12.217	58.372
312	1	1.3575	14.932	58.372
313	1	0	10.86	59.73
314	2	2.715	13.575	59.73
315	1	1.3575	12.217	61.087
316	1	4.0725	14.932	61.087
317	1	2.715	10.86	62.445
318	1	0	13.575	62.445
319	1	4.0725	12.217	63.802
320	1	1.3575	14.932	63.802
321	2	0	10.86	65.16
322	2	2.715	13.575	65.16
323	1	1.3575	12.217	66.517
324	1	4.0725	14.932	66.517
325	1	2.715	10.86	67.875
326	1	0	13.575	67.875
327	1	4.0725	12.217	69.233
328	1	1.3575	14.932	69.233
329	1	0	10.86	70.59
330	1	2.715	13.575	70.59
331	1	1.3575	12.217	71.948
332	1	4.0725	14.932	71.948
333	1	2.715	10.86	73.305
334	1	0	13.575	73.305
335	1	4.0725	12.217	74.663
336	1	1.3575	14.932	74.663
337	1	0	16.29	0
338	1	2.715	19.005	0
339	2	1.3575	17.648	1.3575
340	1	4.0725	20.362	1.3575
341	1	2.715	16.29	2.715
342	1	0	19.005	2.715
343	1	4.0725	17.648	4.0725
344	1	1.3575	20.362	4.0725
345	1	0	16.29	5.43
346	1	2.715	19.005	5.43
347	1	1.3575	17.648	6.7875
348	1	4.0725	20.362	6.7875
349	1	2.715	16.29	8.145
350	1	0	19.005	8.145
351	1	4.0725	17.648	9.5025
352	2	1.3575	20.362	9.5025
353	1	0	16.29	10.86
354	1	2.715	19.005	10.86
355	1	1.3575	17.648	12.217
356	2	4.0725	20.362	12.217
357	1	2.715	16.29	13.575
358	1	0	19.005	13.575
359	1	4.0725	17.648	14.932
360	1	1.3575	20.362	14.932
361	2	0	16.29	16.29
362	1	2.715	19.005	16.29
363	1	1.3575	17.648	17.648
364	1	4.0725	20.362	17.648
365	1	2.715	16.29	19.005
366	1	0	19.005	19.005
367	1	4.0725	17.648	20.362
368	1	1.3575	20.362	20.362
369	1	0	16.29	21.72
370	1	2.715	19.005	21.72
371	1	1.3575	17.648	23.078
372	1	4.0725	20.362	23.078
373	2	2.715	16.29	24.435
374	1	0	19.005	24.435
375	1	4.0725	17.648	25.792
376	1	1.3575	20.362	25.792
377	2	0	16.29	27.15
378	1	2.715	19.005	27.15
379	1	1.3575	17.648	28.508
380	1	4.0725	20.362	28.508
381	1	2.715	16.29	29.865
382	1	0	19.005	29.865
383	1	4.0725	17.648	31.222
384	1	1.3575	20.362	31.222
385	1	0	16.29	32.58
386	1	2.715	19.005	32.58
387	1	1.3575	17.648	33.938
388	1	4.0725	20.362	33.938
389	1	2.715	16.29	35.295
390	1	0	19.005	35.295
391	1	4.0725	17.648	36.652
392	1	1.3575	20.362	36.652
393	1	0	16.29	38.01
394	1	2.715	19.005	38.01
395	1	1.3575	17.648	39.367
396	1	4.0725	20.362	39.367
397	1	2.715	16.29	40.725
398	1	0	19.005	40.725
399	1	4.0725	17.648	42.082
400	2	1.3575	20.362	42.082
401	1	0	16.29	43.44
402	2	2.715	19.005	43.44
403	1	1.3575	17.648	44.797
404	1	4.0725	20.362	44.797
405	1	2.715	16.29	46.155
406	1	0	19.005	46.155
407	1	4.0725	17.648	47.512
408	1	1.3575	20.362	47.512
409	1	0	16.29	48.87
410	1	2.715	19.005	48.87
411	1	1.3575	17.648	50.227
412	2	4.0725	20.362	50.227
413	1	2.715	16.29	51.585
414	1	0	19.005	51.585
415	2	4.0725	17.648	52.942
416	1	1.3575	20.362	52.942
417	1	0	16.29	54.3
418	1	2.715	19.005	54.3
419	1	1.3575	17.648	55.657
420	1	4.0725	20.362	55.657
421	1	2.715	16.29	57.015
422	1	0	19.005	57.015
423	1	4.0725	17.648	58.372
424	1	1.3575	20.362	58.372
425	1	0	16.29	59.73
426	1	2.715	19.005	59.73
427	1	1.3575	17.648	61.087
428	1	4.0725	20.362	61.087
429	1	2.715	16.29	62.445
430	2	0	19.005	62.445
431	1	4.0725	17.648	63.802
432	1	1.3575	20.362	63.802
433	1	0	16.29	65.16
434	1	2.715	19.005	65.16
435	1	1.3575	17.648	66.517
436	1	4.0725	20.362	66.517
437	1	2.715	16.29	67.875
438	1	0	19.005	67.875
439	1	4.0725	17.648	69.233
440	1	1.3575	20.362	69.233
441	1	0	16.29	70.59
442	1	2.715	19.005	70.59
443	2	1.3575	17.648	71.948
444	1	4.0725	20.362	71.948
445	2	2.715	16.29	73.305
446	1	0	19.005	73.305
447	1	4.0725	17.648	74.663
448	1	1.3575	20.362	74.663
449	1	0	21.72	0
450	1	2.715	24.435	0
451	1	1.3575	23.078	1.3575
452	1	4.0725	25.792	1.3575
453	1	2.715	21.72	2.715
454	1	0	24.435	2.715
455	1	4.0725	23.078	4.0725
456	1	1.3575	25.792	4.0725
457	1	0	21.72	5.43
458	1	2.715	24.435	5.43
459	1	1.3575	23.078	6.7875
460	1	4.0725	25.792	6.7875
461	1	2.715	21.72	8.145
462	1	0	24.435	8.145
463	1	4.0725	23.078	9.5025
464	1	1.3575	25.792	9.5025
465	1	0	21.72	10.86
466	1	2.715	24.435	10.86
467	1	1.3575	23.078	12.217
468	1	4.0725	25.792	12.217
469	1	2.715	21.72	13.575
470	1	0	24.435	13.575
471	1	4.0725	23.078	14.932
472	1	1.3575	25.792	14.932
473	1	0	21.72	16.29
474	1	2.715	24.435	16.29
475	1	1.3575	23.078	17.648
476	1	4.0725	25.792	17.648
477	1	2.715	21.72	19.005
478	1	0	24.435	19.005
479	1	4.0725	23.078	20.362
480	1	1.3575	25.792	20.362
481	1	0	21.72	21.72
482	1	2.715	24.435	21.72
483	1	1.3575	23.078	23.078
484	2	4.0725	25.792	23.078
485	1	2.715	21.72	24.435
486	1	0	24.435	24.435
487	1	4.0725	23.078	25.792
488	1	1.3575	25.792	25.792
489	1	0	21.72	27.15
490	1	2.715	24.435	27.15
491	1	1.3575	23.078	28.508
492	1	4.0725	25.792	28.508
493	1	2.715	21.72	29.865
494	1	0	24.435	29.865
495	1	4.0725	23.078	31.222
496	1	1.3575	25.792	31.222
497	1	0	21.72	32.58
498	1	2.715	24.435	32.58
499	1	1.3575	23.078	33.938
500	2	4.0725	25.792	33.938
501	1	2.715	21.72	35.295
502	1	0	24.435	35.295
503	1	4.0725	23.078	36.652
504	1	1.3575	25.792	36.652
505	1	0	21.72	38.01
506	1	2.715	24.435	38.01
507	1	1.3575	23.078	39.367
508	1	4.0725	25.792	39.367
509	2	2.715	21.72	40.725
510	1	0	24.435	40.725
511	1	4.0725	23.078	42.082
512	1	1.3575	25.792	42.082
513	1	0	21.72	43.44
514	1	2.715	24.435	43.44
515	1	1.3575	23.078	44.797
516	1	4.0725	25.792	44.797
517	1	2.715	21.72	46.155
518	1	0	24.435	46.155
519	1	4.0725	23.078	47.512
520	1	1.3575	25.792	47.512
521	1	0	21.72	48.87
522	1	2.715	24.435	48.87
523	1	1.3575	23.078	50.227
524	1	4.0725	25.792	50.227
525	1	2.715	21.72	51.585
526	1	0	24.435	51.585
527	1	4.0725	23.078	52.942
528	1	1.3575	25.792	52.942
529	1	0	21.72	54.3
530	1	2.715	24.435	54.3
531	1	1.3575	23.078	55.657
532	1	4.0725	25.792	55.657
533	1	2.715	21.72	57.015
534	1	0	24.435	57.015
535	1	4.0725	23.078	58.372
536	1	1.3575	25.792	58.372
537	1	0	21.72	59.73
538	1	2.715	24.435	59.73
539	1	1.3575	23.078	61.087
540	1	4.0725	25.792	61.087
541	1	2.715	21.72	62.445
542	1	0	24.435	62.445
543	1	4.0725	23.078	63.802
544	1	1.3575	25.792	63.802
545	1	0	21.72	65.16
546	1	2.715	24.435	65.16
547	1	1.3575	23.078	66.517
548	1	4.0725	25.792	66.517
549	1	2.715	21.72	67.875
550	1	0	24.435	67.875
551	1	4.0725	23.078	69.233
552	1	1.3575	25.792	69.233
553	1	0	21.72	70.59
554	1	2.715	24.435	70.59
555	1	1.3575	23.078	71.948
556	1	4.0725	25.792	71.948
557	1	2.715	21.72	73.305
558	1	0	24.435	73.305
559	1	4.0725	23.078	74.663
560	1	1.3575	25.792	74.663
561	1	0	27.15	0
562	1	2.715	29.865	0
563	1	1.3575	28.508	1.3575
564	1	4.0725	31.222	1.3575
565	1	2.715	27.15	2.715
566	1	0	29.865	2.715
567	1	4.0725	28.508	4.0725
568	1	1.3575	31.222	4.0725
569	1	0	27.15	5.43
570	1	2.715	29.865	5.43
571	1	1.3575	28.508	6.7875
572	1	4.0725	31.222	6.7875
573	1	2.715	27.15	8.145
574	2	0	29.865	8.145
575	1	4.0725	28.508	9.5025
576	1	1.3575	31.222	9.5025
577	1	0	27.15	10.86
578	1	2.715	29.865	10.86
579	1	1.3575	28.508	12.217
580	1	4.0725	31.222	12.217
581	1	2.715	27.15	13.575
582	1	0	29.865	13.575
583	1	4.0725	28.508	14.932
584	1	1.3575	31.222	14.932
585	1	0	27.15	16.29
586	1	2.715	29.865	16.29
587	1	1.3575	28.508	17.648
588	2	4.0725	31.222	17.648
589	2	2.715	27.15	19.005
590	1	0	29.865	19.005
591	1	4.0725	28.508	20.362
592	1	1.3575	31.222	20.362
593	1	0	27.15	21.72
594	1	2.715	29.865	21.72
595	1	1.3575	28.508	23.078
596	1	4.0725	31.222	23.078
597	1	2.715	27.15	24.435
598	1	0	29.865	24.435
599	1	4.0725	28.508	25.792
600	2	1.3575	31.222	25.792
601	1	0	27.15	27.15
602	1	2.715	29.865	27.15
603	1	1.3575	28.508	28.508
604	1	4.0725	31.222	28.508
605	1	2.715	27.15	29.865
606	1	0	29.865	29.865
607	1	4.0725	28.508	31.222
608	1	1.3575	31.222	31.222
609	1	0	27.15	32.58
610	1	2.715	29.865	32.58
611	1	1.3575	28.508	33.938
612	1	4.0725	31.222	33.938
613	1	2.715	27.15	35.295
614	1	0	29.865	35.295
615	1	4.0725	28.508	36.652
616	2	1.3575	31.222	36.652
617	1	0	27.15	38.01
618	1	2.715	29.865	38.01
619	1	1.3575	28.508	39.367
620	2	4.0725	31.222	39.367
621	1	2.715	27.15	40.725
622	1	0	29.865	40.725
623	1	4.0725	28.508	42.082
624	1	1.3575	31.222	42.082
625	1	0	27.15	43.44
626	2	2.715	29.865	43.44
627	1	1.3575	28.508	44.797
628	1	4.0725	31.222	44.797
629	1	2.715	27.15	46.155
630	2	0	29.865	46.155
631	1	4.0725	28.508	47.512
632	1	1.3575	31.222	47.512
633	1	0	27.15	48.87
634	1	2.715	29.865	48.87
635	1	1.3575	28.508	50.227
636	1	4.0725	31.222	50.227
637	1	2.715	27.15	51.585
638	1	0	29.865	51.585
639	1	4.0725	28.508	52.942
640	1	1.3575	31.222	52.942
641	2	0	27.15	54.3
642	1	2.715	29.865	54.3
643	1	1.3575	28.508	55.657
644	1	4.0725	31.222	55.657
645	1	2.715	27.15	57.015
646	2	0	29.865	57.015
647	1	4.0725	28.508	58.372
648	1	1.3575	31.222	58.372
649	1	0	27.15	59.73
650	1	2.715	29.865	59.73
651	1	1.3575	28.508	61.087
652	1	4.0725	31.222	61.087
653	1	2.715	27.15	62.445
654	1	0	29.865	62.445
655	1	4.0725	28.508	63.802
656	1	1.3575	31.222	63.802
657	1	0	27.15	65.16
658	1	2.715	29.865	65.16
659	1	1.3575	28.508	66.517
660	1	4.0725	31.222	66.517
661	1	2.715	27.15	67.875
662	1	0	29.865	67.875
663	1	4.0725	28.508	69.233
664	1	1.3575	31.222	69.233
665	1	0	27.15	70.59
666	1	2.715	29.865	70.59
667	1	1.3575	28.508	71.948
668	1	4.0725	31.222	71.948
669	1	2.715	27.15	73.305
670	1	0	29.865	73.305
671	1	4.0725	28.508	74.663
672	1	1.3575	31.222	74.663
673	1	0	32.58	0
674	1	2.715	35.295	0
675	1	1.3575	33.938	1.3575
676	1	4.0725	36.652	1.3575
677	1	2.715	32.58	2.715
678	1	0	35.295	2.715
679	1	4.0725	33.938	4.0725
680	1	1.3575	36.652	4.0725
681	1	0	32.58	5.43
682	1	2.715	35.295	5.43
683	2	1.3575	33.938	6.7875
684	1	4.0725	36.652	6.7875
685	1	2.715	32.58	8.145
686	1	0	35.295	8.145
687	1	4.0725	33.938	9.5025
688	1	1.3575	36.652	9.5025
689	1	0	32.58	10.86
690	1	2.715	35.295	10.86
691	1	1.3575	33.938	12.217
692	1	4.0725	36.652	12.217
693	1	2.715	32.58	13.575
694	1	0	35.295	13.575
695	1	4.0725	33.938	14.932
696	1	1.3575	36.652	14.932
697	1	0	32.58	16.29
698	1	2.715	35.295	16.29
699	1	1.3575	33.938	17.648
700	1	4.0725	36.652	17.648
701	2	2.715	32.58	19.005
702	1	0	35.295	19.005
703	1	4.0725	33.938	20.362
704	2	1.3575	36.652	20.362
705	1	0	32.58	21.72
706	1	2.715	35.295	21.72
707	1	1.3575	33.938	23.078
708	1	4.0725	36.652	23.078
709	1	2.715	32.58	24.435
710	1	0	35.295	24.435
711	1	4.0725	33.938	25.792
712	1	1.3575	36.652	25.792
713	1	0	32.58	27.15
714	1	2.715	35.295	27.15
715	1	1.3575	33.938	28.508
716	1	4.0725	36.652	28.508
717	1	2.715	32.58	29.865
718	1	0	35.295	29.865
719	1	4.0725	33.938	31.222
720	1	1.3575	36.652	31.222
721	1	0	32.58	32.58
722	1	2.715	35.295	32.58
723	1	1.3575	33.938	33.938
724	1	4.0725	36.652	33.938
725	1	2.715	32.58	35.295
726	1	0	35.295	35.295
727	2	4.0725	33.938	36.652
728	1	1.3575	36.652	36.652
729	1	0	32.58	38.01
730	1	2.715	35.295	38.01
731	1	1.3575	33.938	39.367
732	2	4.0725	36.652	39.367
733	1	2.715	32.58	40.725
734	1	0	35.295	40.725
735	1	4.0725	33.938	42.082
736	1	1.3575	36.652	42.082
737	1	0	32.58	43.44
738	1	2.715	35.295	43.44
739	1	1.3575	33.938	44.797
740	1	4.0725	36.652	44.797
741	1	2.715	32.58	46.155
742	1	0	35.295	46.155
743	1	4.0725	33.938	47.512
744	1	1.3575	36.652	47.512
745	1	0	32.58	48.87
746	1	2.715	35.295	48.87
747	1	1.3575	33.938	50.227
748	1	4.0725	36.652	50.227
749	1	2.715	32.58	51.585
750	1	0	35.295	51.585
751	1	4.0725	33.938	52.942
752	1	1.3575	36.652	52.942
753	1	0	32.58	54.3
754	1	2.715	35.295	54.3
755	1	1.3575	33.938	55.657
756	1	4.0725	36.652	55.657
757	1	2.715	32.58	57.015
758	1	0	35.295	57.015
759	1	4.0725	33.938	58.372
760	1	1.3575	36.652	58.372
761	1	0	32.58	59.73
762	1	2.715	35.295	59.73
763	1	1.3575	33.938	61.087
764	1	4.0725	36.652	61.087
765	1	2.715	32.58	62.445
766	1	0	35.295	62.445
767	1	4.0725	33.938	63.802
768	1	1.3575	36.652	63.802
769	1	0	32.58	65.16
770	1	2.715	35.295	65.16
771	1	1.3575	33.938	66.517
772	1	4.0725	36.652	66.517
773	1	2.715	32.58	67.875
774	1	0	35.295	67.875
775	2	4.0725	33.938	69.233
776	1	1.3575	36.652	69.233
777	1	0	32.58	70.59
778	1	2.715	35.295	70.59
779	1	1.3575	33.938	71.948
780	1	4.0725	36.652	71.948
781	1	2.715	32.58	73.305
782	1	0	35.295	73.305
783	1	4.0725	33.938	74.663
784	1	1.3575	36.652	74.663
785	1	0	38.01	0
786	1	2.715	40.725	0
787	1	1.3575	39.367	1.3575
788	1	4.0725	42.082	1.3575
789	1	2.715	38.01	2.715
790	1	0	40.725	2.715
791	1	4.0725	39.367	4.0725
792	1	1.3575	42.082	4.0725
793	1	0	38.01	5.43
794	1	2.715	40.725	5.43
795	1	1.3575	39.367	6.7875
796	1	4.0725	42.082	6.7875
797	1	2.715	38.01	8.145
798	1	0	40.725	8.145
799	1	4.0725	39.367	9.5025
800	1	1.3575	42.082	9.5025
801	1	0	38.01	10.86
802	1	2.715	40.725	10.86
803	1	1.3575	39.367	12.217
804	1	4.0725	42.082	12.217
805	1	2.715	38.01	13.575
806	1	0	40.725	13.575
807	1	4.0725	39.367	14.932
808	1	1.3575	42.082	14.932
809	1	0	38.01	16.29
810	1	2.715	40.725	16.29
811	1	1.3575	39.367	17.648
812	1	4.0725	42.082	17.648
813	1	2.715	38.01	19.005
814	1	0	40.725	19.005
815	1	4.0725	39.367	20.362
816	1	1.3575	42.082	20.362
817	1	0	38.01	21.72
818	1	2.715	40.725	21.72
819	1	1.3575	39.367	23.078
820	1	4.0725	42.082	23.078
821	1	2.715	38.01	24.435
822	1	0	40.725	24.435
823	1	4.0725	39.367	25.792
824	1	1.3575	42.082	25.792
825	1	0	38.01	27.15
826	1	2.715	40.725	27.15
827	1	1.3575	39.367	28.508
828	1	4.0725	42.082	28.508
829	1	2.715	38.01	29.865
830	2	0	40.725	29.865
831	1	4.0725	39.367	31.222
832	1	1.3575	42.082	31.222
833	2	0	38.01	32.58
834	1	2.715	40.725	32.58
835	1	1.3575	39.367	33.938
836	1	4.0725	42.082	33.938
837	1	2.715	38.01	35.295
838	1	0	40.725	35.295
839	1	4.0725	39.367	36.652
840	1	1.3575	42.082	36.652
841	1	0	38.01	38.01
842	1	2.715	40.725	38.01
843	1	1.3575	39.367	39.367
844	1	4.0725	42.082	39.367
845	1	2.715	38.01	40.725
846	1	0	40.725	40.725
847	1	4.0725	39.367	42.082
848	1	1.3575	42.082	42.082
849	1	0	38.01	43.44
850	1	2.715	40.725	43.44
851	1	1.3575	39.367	44.797
852	1	4.0725	42.082	44.797
853	1	2.715	38.01	46.155
854	1	0	40.725	46.155
855	1	4.0725	39.367	47.512
856	1	1.3575	42.082	47.512
857	1	0	38.01	48.87
858	1	2.715	40.725	48.87
859	1	1.3575	39.367	50.227
860	1	4.0725	42.082	50.227
861	1	2.715	38.01	51.585
862	1	0	40.725	51.585
863	1	4.0725	39.367	52.942
864	1	1.3575	42.082	52.942
865	1	0	38.01	54.3
866	1	2.715	40.725	54.3
867	1	1.3575	39.367	55.657
868	1	4.0725	42.082	55.657
869	1	2.715	38.01	57.015
870	1	0	40.725	57.015
871	1	4.0725	39.367	58.372
872	1	1.3575	42.082	58.372
873	1	0	38.01	59.73
874	1	2.715	40.725	59.73
875	1	1.3575	39.367	61.087
876	1	4.0725	42.082	61.087
877	1	2.715	38.01	62.445
878	1	0	40.725	62.445
879	1	4.0725	39.367	63.802
880	1	1.3575	42.082	63.802
881	1	0	38.01	65.16
882	1	2.715	40.725	65.16
883	1	1.3575	39.367	66.517
884	1	4.0725	42.082	66.517
885	1	2.715	38.01	67.875
886	1	0	40.725	67.875
887	1	4.0725	39.367	69.233
888	1	1.3575	42.082	69.233
889	2	0	38.01	70.59
890	1	2.715	40.725	70.59
891	1	1.3575	39.367	71.948
892	1	4.0725	42.082	71.948
893	1	2.715	38.01	73.305
894	1	0	40.725	73.305
895	1	4.0725	39.367	74.663
896	1	1.3575	42.082	74.663
897	1	0	43.44	0
898	1	2.715	46.155	0
899	1	1.3575	44.797	1.3575
900	1	4.0725	47.512	1.3575
901	1	2.715	43.44	2.715
902	1	0	46.155	2.715
903	1	4.0725	44.797	4.0725
904	1	1.3575	47.512	4.0725
905	1	0	43.44	5.43
906	1	2.715	46.155	5.43
907	1	1.3575	44.797	6.7875
908	1	4.0725	47.512	6.7875
909	1	2.715	43.44	8.145
910	2	0	46.155	8.145
911	1	4.0725	44.797	9.5025
912	1	1.3575	47.512	9.5025
913	2	0	43.44	10.86
914	1	2.715	46.155	10.86
915	1	1.3575	44.797	12.217
916	1	4.0725	47.512	12.217
917	1	2.715	43.44	13.575
918	1	0	46.155	13.575
919	1	4.0725	44.797	14.932
920	1	1.3575	47.512	14.932
921	1	0	43.44	16.29
922	1	2.715	46.155	16.29
923	1	1.3575	44.797	17.648
924	1	4.0725	47.512	17.648
925	1	2.715	43.44	19.005
926	1	0	46.155	19.005
927	1	4.0725	44.797	20.362
928	1	1.3575	47.512	20.362
929	1	0	43.44	21.72
930	1	2.715	46.155	21.72
931	1	1.3575	44.797	23.078
932	1	4.0725	47.512	23.078
933	1	2.715	43.44	24.435
934	1	0	46.155	24.435
935	1	4.0725	44.797	25.792
936	1	1.3575	47.512	25.792
937	1	0	43.44	27.15
938	1	2.715	46.155	27.15
939	2	1.3575	44.797	28.508
940	1	4.0725	47.512	28.508
941	1	2.715	43.44	29.865
942	1	0	46.155	29.865
943	1	4.0725	44.797	31.222
944	1	1.3575	47.512	31.222
945	1	0	43.44	32.58
946	1	2.715	46.155	32.58
947	1	1.3575	44.797	33.938
948	1	4.0725	47.512	33.938
949	1	2.715	43.44	35.295
950	1	0	46.155	35.295
951	1	4.0725	44.797	36.652
952	1	1.3575	47.512	36.652
953	1	0	43.44	38.01
954	1	2.715	46.155	38.01
955	1	1.3575	44.797	39.367
956	1	4.0725	47.512	39.367
957	1	2.715	43.44	40.725
958	1	0	46.155	40.725
959	1	4.0725	44.797	42.082
960	1	1.3575	47.512	42.082
961	1	0	43.44	43.44
962	1	2.715	46.155	43.44
963	1	1.3575	44.797	44.797
964	1	4.0725	47.512	44.797
965	1	2.715	43.44	46.155
966	1	0	46.155	46.155
967	1	4.0725	44.797	47.512
968	1	1.3575	47.512	47.512
969	1	0	43.44	48.87
970	1	2.715	46.155	48.87
971	1	1.3575	44.797	50.227
972	1	4.0725	47.512	50.227
973	1	2.715	43.44	51.585
974	1	0	46.155	51.585
975	1	4.0725	44.797	52.942
976	1	1.3575	47.512	52.942
977	2	0	43.44	54.3
978	1	2.715	46.155	54.3
979	1	1.3575	44.797	55.657
980	1	4.0725	47.512	55.657
981	1	2.715	43.44	57.015
982	2	0	46.155	57.015
983	1	4.0725	44.797	58.372
984	1	1.3575	47.512	58.372
985	1	0	43.44	59.73
986	1	2.715	46.155	59.73
987	1	1.3575	44.797	61.087
988	1	4.0725	47.512	61.087
989	1	2.715	43.44	62.445
990	1	0	46.155	62.445
991	1	4.0725	44.797	63.802
992	1	1.3575	47.512	63.802
993	1	0	43.44	65.16
994	1	2.715	46.155	65.16
995	1	1.3575	44.797	66.517
996	1	4.0725	47.512	66.517
997	1	2.715	43.44	67.875
998	1	0	46.155	67.875
999	1	4.0725	44.797	69.233
1000	1	1.3575	47.512	69.233
1001	1	0	43.44	70.59
1002	1	2.715	46.155	70.59
1003	1	1.3575	44.797	71.948
1004	1	4.0725	47.512	71.948
1005	2	2.715	43.44	73.305
1006	1	0	46.155	73.305
1007	1	4.0725	44.797	74.663
1008	1	1.3575	47.512	74.663
1009	1	0	48.87	0
1010	1	2.715	51.585	0
1011	1	1.3575	50.227	1.3575
1012	2	4.0725	52.942	1.3575
1013	1	2.715	48.87	2.715
1014	1	0	51.585	2.715
1015	1	4.0725	50.227	4.0725
1016	1	1.3575	52.942	4.0725
1017	1	0	48.87	5.43
1018	1	2.715	51.585	5.43
1019	1	1.3575	50.227	6.7875
1020	1	4.0725	52.942	6.7875
1021	1	2.715	48.87	8.145
1022	1	0	51.585	8.145
1023	1	4.0725	50.227	9.5025
1024	1	1.3575	52.942	9.5025
1025	1	0	48.87	10.86
1026	1	2.715	51.585	10.86
1027	1	1.3575	50.227	12.217
1028	1	4.0725	52.942	12.217
1029	1	2.715	48.87	13.575
1030	1	0	51.585	13.575
1031	1	4.0725	50.227	14.932
1032	1	1.3575	52.942	14.932
1033	1	0	48.87	16.29
1034	1	2.715	51.585	16.29
1035	1	1.3575	50.227	17.648
1036	1	4.0725	52.942	17.648
1037	1	2.715	48.87	19.005
1038	1	0	51.585	19.005
1039	1	4.0725	50.227	20.362
1040	1	1.3575	52.942	20.362
1041	1	0	48.87	21.72
1042	1	2.715	51.585	21.72
1043	1	1.3575	50.227	23.078
1044	1	4.0725	52.942	23.078
1045	1	2.715	48.87	24.435
1046	1	0	51.585	24.435
1047	1	4.0725	50.227	25.792
1048	1	1.3575	52.942	25.792
1049	1	0	48.87	27.15
1050	1	2.715	51.585	27.15
1051	1	1.3575	50.227	28.508
1052	1	4.0725	52.942	28.508
1053	1	2.715	48.87	29.865
1054	1	0	51.585	29.865
1055	1	4.0725	50.227	31.222
1056	1	1.3575	52.942	31.222
1057	1	0	48.87	32.58
1058	1	2.715	51.585	32.58
1059	1	1.3575	50.227	33.938
1060	1	4.0725	52.942	33.938
1061	1	2.715	48.87	35.295
1062	1	0	51.585	35.295
1063	1	4.0725	50.227	36.652
1064	1	1.3575	52.942	36.652
1065	1	0	48.87	38.01
1066	1	2.715	51.585	38.01
1067	1	1.3575	50.227	39.367
1068	1	4.0725	52.942	39.367
1069	1	2.715	48.87	40.725
1070	1	0	51.585	40.725
1071	2	4.0725	50.227	42.082
1072	1	1.3575	52.942	42.082
1073	1	0	48.87	43.44
1074	1	2.715	51.585	43.44
1075	1	1.3575	50.227	44.797
1076	1	4.0725	52.942	44.797
1077	1	2.715	48.87	46.155
1078	1	0	51.585	46.155
1079	1	4.0725	50.227	47.512
1080	1	1.3575	52.942	47.512
1081	1	0	48.87	48.87
1082	1	2.715	51.585	48.87
1083	1	1.3575	50.227	50.227
1084	1	4.0725	52.942	50.227
1085	1	2.715	48.87	51.585
1086	1	0	51.585	51.585
1087	1	4.0725	50.227	52.942
1088	1	1.3575	52.942	52.942
1089	1	0	48.87	54.3
1090	1	2.715	51.585	54.3
1091	1	1.3575	50.227	55.657
1092	1	4.0725	52.942	55.657
1093	1	2.715	48.87	57.015
1094	1	0	51.585	57.015
1095	1	4.0725	50.227	58.372
1096	1	1.3575	52.942	58.372
1097	1	0	48.87	59.73
1098	1	2.715	51.585	59.73
1099	1	1.3575	50.227	61.087
1100	1	4.0725	52.942	61.087
1101	1	2.715	48.87	62.445
1102	1	0	51.585	62.445
1103	1	4.0725	50.227	63.802
1104	1	1.3575	52.942	63.802
1105	1	0	48.87	65.16
1106	1	2.715	51.585	65.16
1107	1	1.3575	50.227	66.517
1108	1	4.0725	52.942	66.517
1109	1	2.715	48.87	67.875
1110	1	0	51.585	67.875
1111	1	4.0725	50.227	69.233
1112	1	1.3575	52.942	69.233
1113	1	0	48.87	70.59
1114	2	2.715	51.585	70.59
1115	1	1.3575	50.227	71.948
1116	1	4.0725	52.942	71.948
1117	1	2.715	48.87	73.305
1118	1	0	51.585	73.305
1119	1	4.0725	50.227	74.663
1120	1	1.3575	52.942	74.663
1121	1	0	54.3	0
1122	1	2.715	57.015	0
1123	1	1.3575	55.657	1.3575
1124	1	4.0725	58.372	1.3575
1125	1	2.715	54.3	2.715
1126	1	0	57.015	2.715
1127	1	4.0725	55.657	4.0725
1128	1	1.3575	58.372	4.0725
1129	1	0	54.3	5.43
1130	1	2.715	57.015	5.43
1131	1	1.3575	55.657	6.7875
1132	2	4.0725	58.372	6.7875
1133	1	2.715	54.3	8.145
1134	1	0	57.015	8.145
1135	1	4.0725	55.657	9.5025
1136	1	1.3575	58.372	9.5025
1137	1	0	54.3	10.86
1138	1	2.715	57.015	10.86
1139	1	1.3575	55.657	12.217
1140	1	4.0725	58.372	12.217
1141	1	2.715	54.3	13.575
1142	1	0	57.015	13.575
1143	1	4.0725	55.657	14.932
1144	1	1.3575	58.372	14.932
1145	1	0	54.3	16.29
1146	1	2.715	57.015	16.29
1147	1	1.3575	55.657	17.648
1148	1	4.0725	58.372	17.648
1149	1	2.715	54.3	19.005
1150	1	0	57.015	19.005
1151	1	4.0725	55.657	20.362
1152	1	1.3575	58.372	20.362
1153	1	0	54.3	21.72
1154	1	2.715	57.015	21.72
1155	1	1.3575	55.657	23.078
1156	1	4.0725	58.372	23.078
1157	1	2.715	54.3	24.435
1158	1	0	57.015	24.435
1159	1	4.0725	55.657	25.792
1160	1	1.3575	58.372	25.792
1161	1	0	54.3	27.15
1162	1	2.715	57.015	27.15
1163	1	1.3575	55.657	28.508
1164	1	4.0725	58.372	28.508
1165	1	2.715	54.3	29.865
1166	1	0	57.015	29.865
1167	1	4.0725	55.657	31.222
1168	1	1.3575	58.372	31.222
1169	1	0	54.3	32.58
1170	1	2.715	57.015	32.58
1171	1	1.3575	55.657	33.938
1172	2	4.0725	58.372	33.938
1173	1	2.715	54.3	35.295
1174	1	0	57.015	35.295
1175	1	4.0725	55.657	36.652
1176	1	1.3575	58.372	36.652
1177	1	0	54.3	38.01
1178	1	2.715	57.015	38.01
1179	1	1.3575	55.657	39.367
1180	1	4.0725	58.372	39.367
1181	1	2.715	54.3	40.725
1182	1	0	57.015	40.725
1183	1	4.0725	55.657	42.082
1184	1	1.3575	58.372	42.082
1185	1	0	54.3	43.44
1186	1	2.715	57.015	43.44
1187	1	1.3575	55.657	44.797
1188	1	4.0725	58.372	44.797
1189	2	2.715	54.3	46.155
1190	1	0	57.015	46.155
1191	1	4.0725	55.657	47.512
1192	1	1.3575	58.372	47.512
1193	1	0	54.3	48.87
1194	1	2.715	57.015	48.87
1195	1	1.3575	55.657	50.227
1196	1	4.0725	58.372	50.227
1197	1	2.715	54.3	51.585
1198	1	0	57.015	51.585
1199	2	4.0725	55.657	52.942
1200	1	1.3575	58.372	52.942
1201	1	0	54.3	54.3
1202	1	2.715	57.015	54.3
1203	1	1.3575	55.657	55.657
1204	1	4.0725	58.372	55.657
1205	1	2.715	54.3	57.015
1206	1	0	57.015	57.015