216
Atoms. Timestep: 0
1 5.00752 5.06608 11.5623
1 7.20246 6.32806 2.87494
1 8.18287 8.11282 0.392077
1 10.0006 9.45669 4.44748
1 6.71363 3.74429 8.13696
1 9.64693 9.07985 14.8908
1 10.653 2.01714 8.24536
1 6.47045 8.50324 3.6677
1 16.1095 5.91448 15.5521
1 13.9775 1.05611 13.7757
1 14.2308 14.656 5.49054
1 13.6275 9.54962 10.5083
1 16.0965 2.0889 13.593
1 11.1103 4.23797 8.88445
1 15.4343 3.09457 9.68762
1 8.47697 14.2142 7.59557
1 2.5149 12.2548 12.8762
1 6.94288 13.6427 0.897293
1 5.78261 1.53595 11.1806
1 8.84884 16.0892 13.7036
1 1.01374 4.64803 0.914664
1 0.391762 8.29097 7.12549
1 1.87815 8.08775 0.999255
1 1.53791 14.4186 9.78228
1 0.92991 9.95188 3.60002
1 2.80585 9.83411 2.26126
1 2.64313 6.01522 1.96406
1 5.13153 8.972 14.2304
1 0.27008 5.69938 5.08884
1 14.0064 7.01379 13.4725
1 0.207363 12.1948 13.7411
1 13.6962 10.6071 14.3848
1 4.79331 1.13675 13.3466
1 7.17753 1.69171 7.05146
1 2.77371 5.29659 7.83075
1 8.79763 12.8404 15.8358
1 14.1995 8.73805 6.06919
1 7.28174 4.68461 4.57662
1 12.6706 5.69663 0.491801
1 15.1029 12.3068 11.8378
1 12.8269 6.0824 3.9822
1 1.35942 10.2387 10.08
1 5.60631 8.32817 8.89954
1 7.34739 10.8227 6.8251
1 11.3199 11.1778 5.48792
1 10.3325 4.80871 11.0101
1 12.8376 13.0767 8.52228
1 13.2287 7.97668 0.332857
1 12.0047 13.8451 14.4108
1 11.8164 0.223291 10.4525
1 15.3825 8.85298 2.59156
1 16.0496 14.1352 15.0537
1 14.0831 15.0069 14.0013
1 5.89666 13.78 10.8153
1 3.29969 4.68082 14.8181
1 15.4509 15.8722 2.24246
1 16.0557 6.58505 9.91383
1 4.37262 4.20525 3.1016
1 15.54 3.57959 2.1284
1 15.0233 12.4206 5.50491
1 2.41892 6.34351 4.3892
1 12.188 5.10628 13.6644
1 8.03099 2.31447 11.4542
1 5.12009 11.755 3.58637
1 16.1462 15.8732 10.6281
1 3.82239 4.77268 5.70025
1 7.5321 14.7316 2.89004
1 5.33158 10.4508 7.97293
1 13.5265 10.7109 4.93898
1 2.95675 8.18801 15.0987
1 1.8864 8.55523 5.19667
1 12.9451 11.1288 12.1906
1 7.7675 5.99135 13.8519
1 2.52277 2.91647 0.0276823
1 10.0599 6.68856 14.1891
1 6.64749 3.22454 0.280406
1 11.5243 1.66671 0.596724
1 10.7669 13.2236 4.42094
1 10.3519 14.7908 6.11132
1 8.88616 11.7434 8.44275
1 14.8533 7.24108 4.32247
1 2.91084 3.2647 9.01736
1 10.6855 9.7618 12.5009
1 7.04662 6.22593 11.642
1 3.40445 15.5837 8.60746
1 8.51709 10.1745 10.3997
1 11.208 11.404 7.86537
1 12.6886 1.8579 11.9743
1 4.35019 9.58529 4.13561
1 12.0444 14.1536 2.5551
1 9.20773 0.872723 9.97031
1 10.7767 15.726 1.15722
1 9.3492 2.11966 6.26012
1 5.4896 15.4488 0.142035
1 11.0409 7.56128 3.13744
1 1.10374 1.16785 11.894
1 5.07466 3.3952 9.90257
1 4.29576 13.5871 7.61207
1 11.7464 2.86928 2.57286
1 12.5122 14.8984 7.08554
1 3.52551 2.31473 5.69959
1 4.45025 8.82577 11.9468
1 1.03335 16.0349 3.72557
1 9.09458 7.19454 7.87765
1 15.0655 12.2771 7.93671
1 0.233936 1.04586 7.17342
1 9.62055 4.3963 5.47484
1 10.4313 7.15185 5.86233
1 8.67481 12.7511 3.56081
1 10.6208 7.11529 11.7014
1 4.65987 12.1085 9.57892
1 9.24636 10.7144 2.44757
1 1.9075 1.93864 4.01483
1 5.48656 11.1463 15.1182
1 13.9535 4.42011 15.2581
1 5.79397 5.13504 1.41356
1 13.5767 12.619 1.50743
1 0.229911 12.2798 9.9324
1 12.9031 7.51618 11.4652
1 4.8769 1.73104 15.9325
1 4.34404 6.27871 16.2236
1 3.10492 11.7495 0.886769
1 7.8595 8.92289 5.52923
1 10.9685 3.2634 12.673
1 3.33693 10.8109 11.188
1 3.93581 13.6678 4.27363
1 4.96337 3.65396 13.4639
1 0.867229 12.1524 4.40875
1 2.33318 10.5752 15.1353
1 12.4265 11.9935 15.8122
1 3.51215 7.2326 9.07491
1 2.55529 1.3918 7.6452
1 6.0331 5.28347 6.45406
1 12.2053 1.25033 4.20321
1 4.13769 12.9748 14.4257
1 16.0477 9.90281 14.7975
1 4.7667 0.254966 2.32539
1 0.164693 15.4114 5.88271
1 9.41292 6.40025 1.83819
1 9.02877 4.89118 7.92492
1 1.72388 15.5476 15.003
1 15.4152 1.55399 0.912808
1 14.9776 9.91479 8.30556
1 5.72301 11.6294 1.24468
1 6.87626 7.39434 7.17189
1 10.3341 10.9099 0.172151
1 13.586 2.11187 15.8143
1 7.66318 9.58036 13.3917
1 6.43057 7.27413 15.3011
1 1.66645 6.45508 13.9054
1 6.33924 2.70374 3.52094
1 15.0706 0.907513 8.99083
1 13.3602 4.52119 2.34129
1 2.80363 16.1357 12.931
1 10.0539 14.7961 15.3556
1 1.06101 5.45331 11.5782
1 3.37827 2.27946 2.24513
1 0.137877 3.48019 4.26861
1 12.7939 0.696041 8.15215
1 12.0816 4.61829 5.76427
1 11.3413 13.029 12.2807
1 5.48702 15.8797 9.82171
1 13.7982 5.86797 10.1755
1 9.0702 0.204701 2.62499
1 12.8937 2.32318 6.14155
1 1.36839 12.9447 2.18349
1 15.7372 8.16743 0.269093
1 9.72207 4.09004 2.89688
1 6.36108 14.0357 6.43403
1 15.6577 13.7792 1.10552
1 12.9147 5.4893 7.91604
1 2.3163 9.11909 8.28204
1 15.0853 4.34708 7.68914
1 9.65373 15.1704 11.5621
1 15.5753 4.41027 13.1344
1 10.411 5.28283 16.1989
1 13.5063 15.6662 3.54095
1 11.9041 9.32718 8.79437
1 11.8397 9.34448 1.71531
1 2.79059 14.8689 2.59758
1 6.92437 12.2319 5.03728
1 6.00034 13.7598 13.1798
1 13.9852 3.85824 11.4449
1 7.5774 12.0796 13.9407
1 5.65351 1.29789 5.27926
1 9.69314 2.97664 16.0985
1 2.71285 12.547 6.0383
1 9.07186 2.23527 13.7277
1 0.542811 5.9583 7.56859
1 3.24532 14.2088 11.5476
1 7.21834 9.76907 1.82632
1 3.31371 6.7091 11.3996
1 7.21348 3.75901 14.2917
1 14.5413 14.535 11.7604
1 1.03352 13.7211 7.32581
1 3.35958 14.3812 0.0521969
1 12.4505 8.60302 14.4738
1 9.96539 8.41333 9.76226
1 8.08162 4.46595 10.4296
1 8.27323 13.5366 10.3246
1 0.878951 1.41984 15.5924
1 13.6572 10.4928 2.63268
1 12.3807 7.68888 7.14165
1 7.50719 16.1918 8.58977
1 12.5408 14.225 10.6086
1 9.15576 11.9328 12.0359
1 10.087 0.454552 4.77513
1 5.77373 15.3244 4.42451
1 16.1509 8.12878 13.2077
1 8.26671 2.38439 1.95863
1 1.29439 3.23266 10.6804
1 15.2209 2.67025 6.08226
1 15.9841 8.73747 10.9014
1 6.47375 15.8235 14.1482
1 3.49733 10.3119 6.44797
1 6.70061 8.54986 11.0713
216
Atoms. Timestep: 1
1 5.00752 5.06608 11.5623
1 7.20246 6.32806 2.87494
1 8.18286 8.11282 0.392059
1 10.0006 9.45669 4.44748
1 6.71362 3.7443 8.13696
1 9.64693 9.07986 14.8908
1 10.653 2.01713 8.24537
1 6.47044 8.50324 3.6677
1 16.1095 5.91448 15.5521
1 13.9775 1.05608 13.7757
1 14.2308 14.656 5.49055
1 13.6275 9.54963 10.5083
1 16.0965 2.0889 13.593
1 11.1103 4.23797 8.88445
1 15.4343 3.09457 9.68763
1 8.47697 14.2142 7.59558
1 2.51489 12.2548 12.8762
1 6.94289 13.6427 0.897285
1 5.78261 1.53592 11.1806
1 8.84884 16.0892 13.7036
1 1.01371 4.64803 0.914639
1 0.391739 8.29097 7.12549
1 1.87815 8.08776 0.99922
1 1.5379 14.4186 9.78229
1 0.929881 9.95188 3.60001
1 2.80585 9.83411 2.26125
1 2.64314 6.01522 1.96405
1 5.13153 8.972 14.2304
1 0.270065 5.6994 5.08885
1 14.0064 7.01379 13.4725
1 0.207343 12.1948 13.7411
1 13.6962 10.6071 14.3848
1 4.79331 1.13672 13.3466
1 7.17753 1.69169 7.05147
1 2.77372 5.29659 7.83075
1 8.79763 12.8404 15.8358
1 14.1995 8.73805 6.0692
1 7.28174 4.68461 4.57661
1 12.6706 5.69662 0.491768
1 15.1029 12.3068 11.8378
1 12.8269 6.0824 3.9822
1 1.3594 10.2387 10.08
1 5.60632 8.32817 8.89954
1 7.34739 10.8227 6.8251
1 11.3199 11.1778 5.48793
1 10.3325 4.80872 11.0101
1 12.8376 13.0767 8.52227
1 13.2287 7.97668 0.332829
1 12.0047 13.8451 14.4108
1 11.8164 0.223268 10.4525
1 15.3825 8.85299 2.59157
1 16.0496 14.1352 15.0537
1 14.0831 15.0069 14.0013
1 5.89666 13.78 10.8153
1 3.29968 4.68082 14.8181
1 15.4509 15.8722 2.24246
1 16.0557 6.58504 9.91382
1 4.37263 4.20525 3.1016
1 15.54 3.5796 2.1284
1 15.0233 12.4206 5.50492
1 2.41892 6.34352 4.3892
1 12.188 5.10629 13.6644
1 8.03098 2.31447 11.4542
1 5.12009 11.755 3.58637
1 16.1462 15.8732 10.6281
1 3.82239 4.77268 5.70025
1 7.53212 14.7316 2.89003
1 5.33158 10.4508 7.97292
1 13.5265 10.7109 4.93898
1 2.95673 8.18801 15.0987
1 1.8864 8.55522 5.19667
1 12.9451 11.1288 12.1906
1 7.76751 5.99136 13.8519
1 2.52277 2.91647 0.0276701
1 10.0599 6.68856 14.1891
1 6.64751 3.22454 0.280372
1 11.5243 1.6667 0.596705
1 10.7669 13.2236 4.42094
1 10.3519 14.7908 6.11131
1 8.88616 11.7434 8.44276
1 14.8533 7.24107 4.32247
1 2.91084 3.2647 9.01737
1 10.6855 9.7618 12.5009
1 7.04662 6.22593 11.642
1 3.40444 15.5837 8.60746
1 8.51709 10.1745 10.3997
1 11.208 11.404 7.86537
1 12.6886 1.8579 11.9743
1 4.35019 9.58529 4.13562
1 12.0444 14.1536 2.5551
1 9.20774 0.872697 9.97031
1 10.7767 15.726 1.1572
1 9.3492 2.11964 6.26012
1 5.48961 15.4488 0.142014
1 11.0409 7.56128 3.13743
1 1.10372 1.16782 11.894
1 5.07466 3.39521 9.90256
1 4.29577 13.5871 7.61208
1 11.7464 2.86928 2.57286
1 12.5122 14.8984 7.08556
1 3.52551 2.31473 5.69958
1 4.45025 8.82577 11.9468
1 1.03334 16.0349 3.72556
1 9.09458 7.19453 7.87764
1 15.0655 12.2771 7.93671
1 0.233918 1.04584 7.1734
1 9.62055 4.39631 5.47483
1 10.4313 7.15185 5.86234
1 8.67481 12.7511 3.56081
1 10.6208 7.11529 11.7014
1 4.65986 12.1085 9.57892
1 9.24636 10.7144 2.44757
1 1.90749 1.93861 4.01484
1 5.48655 11.1463 15.1182
1 13.9535 4.42012 15.2581
1 5.79395 5.13505 1.41355
1 13.5767 12.619 1.5074
1 0.229885 12.2798 9.93238
1 12.9031 7.51617 11.4652
1 4.8769 1.731 15.9325
1 4.34405 6.27871 16.2236
1 3.10493 11.7495 0.886727
1 7.85951 8.9229 5.52923
1 10.9685 3.2634 12.673
1 3.33694 10.8109 11.188
1 3.93581 13.6678 4.27363
1 4.96337 3.65396 13.4639
1 0.867208 12.1524 4.40876
1 2.33317 10.5752 15.1353
1 12.4265 11.9935 15.8122
1 3.51214 7.2326 9.07491
1 2.55529 1.39178 7.64521
1 6.0331 5.28347 6.45407
1 12.2053 1.25031 4.20321
1 4.13768 12.9748 14.4257
1 16.0477 9.90282 14.7975
1 4.7667 0.254968 2.32538
1 0.16466 15.4114 5.88273
1 9.41293 6.40024 1.83817
1 9.02877 4.8912 7.92492
1 1.72386 15.5476 15.003
1 15.4152 1.55396 0.91278
1 14.9776 9.91478 8.30556
1 5.723 11.6294 1.24465
1 6.87626 7.39434 7.17189
1 10.3341 10.9099 0.17213
1 13.586 2.11187 15.8143
1 7.66318 9.58035 13.3917
1 6.43058 7.27412 15.3011
1 1.66642 6.45507 13.9054
1 6.33924 2.70375 3.52093
1 15.0706 0.907503 8.99084
1 13.3602 4.52119 2.34129
1 2.80363 16.1357 12.931
1 10.0539 14.7961 15.3556
1 1.06099 5.45331 11.5782
1 3.37828 2.27945 2.24511
1 0.137859 3.48018 4.2686
1 12.7939 0.696009 8.15214
1 12.0816 4.61829 5.76427
1 11.3413 13.029 12.2807
1 5.48702 15.8797 9.82173
1 13.7982 5.86796 10.1755
1 9.07019 0.204677 2.62499
1 12.8937 2.32318 6.14154
1 1.36836 12.9447 2.18349
1 15.7372 8.16743 0.269074
1 9.72206 4.09004 2.89686
1 6.36107 14.0357 6.43402
1 15.6577 13.7792 1.1055
1 12.9147 5.4893 7.91605
1 2.3163 9.11909 8.28205
1 15.0853 4.3471 7.68914
1 9.65374 15.1704 11.5621
1 15.5753 4.41028 13.1344
1 10.411 5.28284 16.1989
1 13.5063 15.6662 3.54096
1 11.9041 9.32718 8.79437
1 11.8397 9.34448 1.71531
1 2.7906 14.8689 2.59758
1 6.92437 12.2319 5.03728
1 6.00034 13.7598 13.1798
1 13.9852 3.85825 11.4449
1 7.5774 12.0796 13.9407
1 5.65351 1.29787 5.27925
1 9.69313 2.97663 16.0985
1 2.71285 12.547 6.0383
1 9.07186 2.23524 13.7277
1 0.54277 5.9583 7.56859
1 3.24532 14.2088 11.5476
1 7.21834 9.76907 1.82632
1 3.31371 6.7091 11.3996
1 7.21347 3.759 14.2917
1 14.5413 14.535 11.7604
1 1.0335 13.7211 7.32581
1 3.35957 14.3812 0.0521724
1 12.4505 8.60301 14.4738
1 9.96539 8.41333 9.76226
1 8.08161 4.46595 10.4296
1 8.27323 13.5366 10.3246
1 0.878927 1.41983 15.5924
1 13.6572 10.4928 2.63267
1 12.3807 7.68888 7.14165
1 7.5072 16.1918 8.58976
1 12.5408 14.225 10.6086
1 9.15576 11.9328 12.0359
1 10.087 0.45454 4.77514
1 5.77372 15.3244 4.42451
1 16.1509 8.12877 13.2077
1 8.26672 2.38439 1.95862
1 1.29437 3.23267 10.6804
1 15.2209 2.67024 6.08226
1 15.9841 8.73748 10.9014
1 6.47372 15.8235 14.1482
1 3.49733 10.3119 6.44797
1 6.70061 8.54986 11.0713
